<VTKFile type="UnstructuredGrid" version="0.1" byte_order="LittleEndian">
  <UnstructuredGrid>
    <Piece NumberOfPoints="518" NumberOfCells="608">
      <PointData Scalars="charge" Vectors="flux">
        <DataArray type="Float64" Name="charge" NumberOfComponents="1" format="ascii">
  8.5000000E+000  6.0000000E+000  6.0000000E+000  8.4408502E+000  8.4917008E+000  8.4952334E+000  8.4993372E+000  8.4999763E+000  8.5000000E+000  8.5000000E+000  8.5000000E+000  8.5000000E+000  8.4962047E+000  8.5000000E+000  8.5000000E+000  8.5000000E+000  8.5000000E+000  8.5000000E+000  8.5000000E+000  8.5000000E+000  8.5000000E+000  8.5000000E+000  8.5000000E+000  8.5000000E+000  8.5000000E+000  8.5000000E+000  8.5000000E+000  8.5000000E+000  8.5000000E+000  8.5000000E+000  8.5000000E+000  8.5000000E+000  8.5000000E+000  8.5000000E+000  8.5000000E+000  8.5000000E+000  8.5000000E+000  8.5000000E+000  8.5000000E+000  8.5000000E+000  8.5000000E+000  8.5000000E+000  8.5000000E+000  8.5000000E+000  8.5000000E+000  8.5000000E+000  8.5000000E+000  8.5000000E+000  8.5000000E+000  8.5000000E+000  8.5000000E+000  8.5000000E+000  8.5000000E+000  8.5000000E+000  8.5000000E+000  8.5000000E+000  8.5000000E+000  8.5000000E+000  8.5000000E+000  8.5000000E+000  8.5000000E+000  8.5000000E+000  8.5000000E+000  8.5000000E+000  8.5000000E+000  8.5000000E+000  8.5000000E+000  8.5000000E+000  8.5000000E+000  8.5000000E+000  8.5000000E+000  8.5000000E+000  8.5000000E+000  8.5000000E+000  8.5000000E+000  8.5000000E+000  8.5000000E+000  8.5000000E+000  8.5000000E+000  6.0000000E+000  6.0000000E+000  6.0000000E+000  6.0000000E+000  6.0000000E+000  6.6945238E+000  7.2344980E+000  7.6145931E+000  7.8703410E+000  8.0412299E+000  8.1569548E+000  8.2370031E+000  8.2936633E+000  8.3346871E+000  8.3650402E+000  8.3879703E+000  8.4056541E+000  8.4196022E+000  8.4309528E+000  8.4502987E+000  8.4573633E+000  8.4630419E+000  8.4677371E+000  8.4716778E+000  8.4750176E+000  8.4778682E+000  8.4803147E+000  8.4824236E+000  8.4842478E+000  8.4858299E+000  8.4872043E+000  8.4883987E+000  8.4894350E+000  8.4903286E+000  8.4910869E+000  8.4921474E+000  8.4926103E+000  8.4930658E+000  8.4935025E+000  8.4939143E+000  8.4942976E+000  8.4946491E+000  8.4949643E+000  8.4965460E+000  8.4968711E+000  8.4971775E+000  8.4974639E+000  8.4977299E+000  8.4979757E+000  8.4982020E+000  8.4984095E+000  8.4985992E+000  8.4987723E+000  8.4989301E+000  8.4990744E+000  8.4992077E+000  8.4995130E+000  8.4996304E+000  8.4997177E+000  8.4997836E+000  8.4998337E+000  8.4998719E+000  8.4999010E+000  8.4999232E+000  8.4999400E+000  8.4999526E+000  8.4999619E+000  8.4999685E+000  8.4999729E+000  8.4999755E+000  8.4999771E+000  8.4999795E+000  8.4999832E+000  8.4999881E+000  8.4999939E+000  8.4998541E+000  8.4997142E+000  8.4995861E+000  8.4994760E+000  8.4993900E+000  8.4987746E+000  8.4976462E+000  8.4966952E+000  8.4959714E+000  8.4954888E+000  8.4837917E+000  8.4688458E+000  8.4561584E+000  8.4466820E+000  8.4411867E+000  8.4916140E+000  8.4920637E+000  8.4931997E+000  8.4950089E+000  8.4973556E+000  8.4955461E+000  8.4958759E+000  8.5000000E+000  8.5000000E+000  8.4991146E+000  8.4982852E+000  8.4975592E+000  8.4969690E+000  8.4965253E+000  8.4999936E+000  8.4999877E+000  8.4999826E+000  8.4999787E+000  8.4999763E+000  8.4999930E+000  8.4999865E+000  8.4999808E+000  8.4999765E+000  8.4999738E+000  8.4999918E+000  8.4999842E+000  8.4999777E+000  8.4999727E+000  8.4999696E+000  8.4999901E+000  8.4999809E+000  8.4999730E+000  8.4999670E+000  8.4999632E+000  8.4999877E+000  8.4999763E+000  8.4999665E+000  8.4999589E+000  8.4999542E+000  8.4999845E+000  8.4999700E+000  8.4999576E+000  8.4999480E+000  8.4999420E+000  8.4999802E+000  8.4999616E+000  8.4999457E+000  8.4999335E+000  8.4999258E+000  8.4999745E+000  8.4999506E+000  8.4999301E+000  8.4999143E+000  8.4999044E+000  8.4999670E+000  8.4999362E+000  8.4999097E+000  8.4998892E+000  8.4998763E+000  8.4999574E+000  8.4999175E+000  8.4998830E+000  8.4998563E+000  8.4998395E+000  8.4999449E+000  8.4998933E+000  8.4998484E+000  8.4998135E+000  8.4997912E+000  8.4999291E+000  8.4998622E+000  8.4998037E+000  8.4997576E+000  8.4997280E+000  8.4999091E+000  8.4998229E+000  8.4997465E+000  8.4996851E+000  8.4996447E+000  8.4998843E+000  8.4997740E+000  8.4996746E+000  8.4995921E+000  8.4995336E+000  8.4811596E+000  8.4632967E+000  8.4481038E+000  8.4369762E+000  8.4310860E+000  8.4779659E+000  8.4566214E+000  8.4384061E+000  8.4253115E+000  8.4187943E+000  8.4740096E+000  8.4484268E+000  8.4265351E+000  8.4110194E+000  8.4037569E+000  8.4690087E+000  8.4381671E+000  8.4117254E+000  8.3931881E+000  8.3849361E+000  8.4625608E+000  8.4250552E+000  8.3928693E+000  8.3704743E+000  8.3608361E+000  8.4540730E+000  8.4079286E+000  8.3683265E+000  8.3408917E+000  8.3292809E+000  8.4426446E+000  8.3850238E+000  8.3356152E+000  8.3014535E+000  8.2870236E+000  8.4268617E+000  8.3535854E+000  8.2908872E+000  8.2475675E+000  8.2291018E+000  8.4044152E+000  8.3091498E+000  8.2279958E+000  8.1719984E+000  8.1477678E+000  8.3713081E+000  8.2441427E+000  8.1367274E+000  8.0630669E+000  8.0307167E+000  8.3201247E+000  8.1445115E+000  7.9994089E+000  7.9013608E+000  7.8583228E+000  8.2334499E+000  7.9831047E+000  7.7816169E+000  7.6543235E+000  7.6004005E+000  8.0768671E+000  7.6739447E+000  7.4161221E+000  7.2730812E+000  7.2169148E+000  7.4748349E+000  7.0329406E+000  6.8175943E+000  6.7126348E+000  6.6755634E+000  8.4986715E+000  8.4974523E+000  8.4964324E+000  8.4956678E+000  8.4951716E+000  8.4985584E+000  8.4972402E+000  8.4961465E+000  8.4953393E+000  8.4948349E+000  8.4984342E+000  8.4970078E+000  8.4958347E+000  8.4949839E+000  8.4944722E+000  8.4982974E+000  8.4967524E+000  8.4954937E+000  8.4945982E+000  8.4940808E+000  8.4981462E+000  8.4964710E+000  8.4951197E+000  8.4941785E+000  8.4936589E+000  8.4979788E+000  8.4961601E+000  8.4947085E+000  8.4937205E+000  8.4932048E+000  8.4977929E+000  8.4958160E+000  8.4942553E+000  8.4932190E+000  8.4927166E+000  8.4975861E+000  8.4954339E+000  8.4937545E+000  8.4926685E+000  8.4921900E+000  8.4998317E+000  8.4996700E+000  8.4995214E+000  8.4993921E+000  8.4992888E+000  8.4998063E+000  8.4996200E+000  8.4994481E+000  8.4992974E+000  8.4991726E+000  8.4997778E+000  8.4995637E+000  8.4993657E+000  8.4991908E+000  8.4990442E+000  8.4997457E+000  8.4995006E+000  8.4992735E+000  8.4990721E+000  8.4989028E+000  8.4997098E+000  8.4994300E+000  8.4991707E+000  8.4989405E+000  8.4987472E+000  8.4996696E+000  8.4993512E+000  8.4990564E+000  8.4987951E+000  8.4985763E+000  8.4996247E+000  8.4992635E+000  8.4989296E+000  8.4986346E+000  8.4983887E+000  8.4995745E+000  8.4991657E+000  8.4987890E+000  8.4984579E+000  8.4981835E+000  8.4995183E+000  8.4990567E+000  8.4986333E+000  8.4982636E+000  8.4979594E+000  8.4994555E+000  8.4989351E+000  8.4984608E+000  8.4980501E+000  8.4977154E+000  8.4993850E+000  8.4987994E+000  8.4982696E+000  8.4978159E+000  8.4974507E+000  8.4993057E+000  8.4986475E+000  8.4980574E+000  8.4975590E+000  8.4971644E+000  8.4992161E+000  8.4984770E+000  8.4978216E+000  8.4972775E+000  8.4968561E+000  8.4971177E+000  8.4945565E+000  8.4925784E+000  8.4913404E+000  8.4908679E+000  8.4968489E+000  8.4940451E+000  8.4918761E+000  8.4905207E+000  8.4900241E+000  8.4965446E+000  8.4934660E+000  8.4910802E+000  8.4895905E+000  8.4890611E+000  8.4961997E+000  8.4928094E+000  8.4901766E+000  8.4885326E+000  8.4879598E+000  8.4958084E+000  8.4920635E+000  8.4891488E+000  8.4873265E+000  8.4866989E+000  8.4953638E+000  8.4912152E+000  8.4879775E+000  8.4859488E+000  8.4852539E+000  8.4948582E+000  8.4902489E+000  8.4866404E+000  8.4843716E+000  8.4835947E+000  8.4942828E+000  8.4891471E+000  8.4851112E+000  8.4825619E+000  8.4816853E+000  8.4936275E+000  8.4878896E+000  8.4833596E+000  8.4804803E+000  8.4794816E+000  8.4928811E+000  8.4864533E+000  8.4813502E+000  8.4780797E+000  8.4769294E+000  8.4920308E+000  8.4848126E+000  8.4790428E+000  8.4753041E+000  8.4739616E+000  8.4910623E+000  8.4829387E+000  8.4763918E+000  8.4720871E+000  8.4704938E+000  8.4899599E+000  8.4808003E+000  8.4733481E+000  8.4683518E+000  8.4664190E+000  8.4887054E+000  8.4783625E+000  8.4698599E+000  8.4640142E+000  8.4615998E+000  8.4872780E+000  8.4755863E+000  8.4658743E+000  8.4589956E+000  8.4558625E+000  8.4856519E+000  8.4724295E+000  8.4613283E+000  8.4532476E+000  8.4490229E+000  8.4990141E+000  8.4980952E+000  8.4972996E+000  8.4966645E+000  8.4962017E+000  8.4989014E+000  8.4978833E+000  8.4970128E+000  8.4963327E+000  8.4958574E+000 
        </DataArray>
        <DataArray type="Float64" Name="flux" NumberOfComponents="3" format="ascii">
 -2.5891977E-012  6.2063842E-010 0.0  1.7457069E-004 -2.6509698E-006 0.0  3.9751140E-005  1.4224799E-007 0.0  1.9636592E-006 -8.1810459E-008 0.0  1.0289459E-007 -1.2398457E-008 0.0  5.7603296E-008  1.4053892E-008 0.0  2.0209455E-008  4.5868600E-009 0.0  4.4875204E-011  4.8065328E-011 0.0 -5.5221556E-011  1.4663550E-008 0.0 -3.2907758E-010  8.2693977E-008 0.0 -6.4769979E-010  1.7930300E-007 0.0 -2.5359040E-010  1.6391927E-006 0.0  5.7914259E-008  2.1022613E-008 0.0 -2.7356293E-010  6.3098150E-008 0.0 -2.5944512E-012  6.4219032E-010 0.0 -3.1126073E-012  7.0857831E-010 0.0 -3.8095487E-012  8.2433335E-010 0.0 -4.6871666E-012  9.9742596E-010 0.0 -6.4469828E-012  1.2397558E-009 0.0 -8.6246373E-012  1.5679890E-009 0.0 -1.1362117E-011  2.0047881E-009 0.0 -1.4805667E-011  2.5796402E-009 0.0 -1.9107342E-011  3.3303808E-009 0.0 -2.4416484E-011  4.3042775E-009 0.0 -3.0854694E-011  5.5535300E-009 0.0 -3.5589468E-011  7.1451286E-009 0.0 -4.1148273E-011  9.1560639E-009 0.0 -4.8554549E-011  1.1636913E-008 0.0 -7.1642039E-011  1.6528948E-008 0.0 -8.3249396E-011  1.8573261E-008 0.0 -9.6548108E-011  2.0801547E-008 0.0 -1.0991386E-010  2.3236916E-008 0.0 -1.2139591E-010  2.5884424E-008 0.0 -1.3392804E-010  2.8755547E-008 0.0 -1.4765313E-010  3.1872384E-008 0.0 -1.6270319E-010  3.5257075E-008 0.0 -1.7923980E-010  3.8936196E-008 0.0 -1.9747018E-010  4.2940844E-008 0.0 -2.1476863E-010  4.7310061E-008 0.0 -2.3561310E-010  5.2091405E-008 0.0 -2.5893473E-010  5.7333834E-008 0.0 -3.3124774E-010  8.9673904E-008 0.0 -3.6944218E-010  9.7355822E-008 0.0 -3.9931961E-010  1.0579238E-007 0.0 -4.3988115E-010  1.1510485E-007 0.0 -4.7846607E-010  1.2540998E-007 0.0 -5.2342488E-010  1.3682945E-007 0.0 -5.8344301E-010  1.4949737E-007 0.0 -6.5716143E-010  1.6361786E-007 0.0 -6.1644890E-010  2.0034948E-007 0.0 -7.3571844E-010  2.2449954E-007 0.0 -8.2732277E-010  2.5220040E-007 0.0 -9.5400307E-010  2.8406098E-007 0.0 -1.1035034E-009  3.2079857E-007 0.0 -1.2782786E-009  3.6325861E-007 0.0 -1.4832647E-009  4.1240877E-007 0.0 -1.7246052E-009  4.6938767E-007 0.0 -2.0098788E-009  5.3551938E-007 0.0 -2.3483184E-009  6.1233277E-007 0.0 -2.7509627E-009  7.0158928E-007 0.0 -3.2307750E-009  8.0529879E-007 0.0 -3.8001015E-009  9.2577718E-007 0.0 -4.7509693E-009  1.0656080E-006 0.0 -5.4508415E-009  1.2283318E-006 0.0 -8.7698836E-009  1.4166217E-006 0.0  6.1240229E-009  1.8870702E-006 0.0 -2.5531896E-009  2.1911642E-006 0.0 -7.6138219E-009  2.5739829E-006 0.0 -1.3872851E-008  3.0608004E-006 0.0 -2.1378806E-008  3.6930282E-006 0.0 -3.1213627E-008  4.5289181E-006 0.0 -4.5196061E-008  5.6524100E-006 0.0 -6.8471645E-008  7.2372863E-006 0.0 -1.0716545E-007  9.3238512E-006 0.0 -3.4950937E-007  1.2448280E-005 0.0 -9.8493361E-007  1.7911175E-005 0.0  4.7654951E-006  2.6593158E-005 0.0 -1.9145269E-005  4.3727151E-005 0.0  6.9262560E-005  1.0819522E-004 0.0  1.0019640E-004 -1.9477146E-006 0.0  6.6186379E-005  6.5932911E-008 0.0  5.2963782E-005  8.4002835E-008 0.0  4.4760884E-005 -7.2619602E-008 0.0  4.0897671E-005  1.6636017E-007 0.0  3.6641979E-005  1.0361312E-006 0.0  2.9452812E-005  1.4550876E-006 0.0  2.2079823E-005  1.3602540E-006 0.0  1.6169128E-005  1.0655806E-006 0.0  1.1921447E-005  8.1365694E-007 0.0  8.9702881E-006  6.3285913E-007 0.0  6.9109677E-006  4.9819690E-007 0.0  5.4496293E-006  3.9769878E-007 0.0  4.3933626E-006  3.2268509E-007 0.0  3.6171450E-006  2.6653072E-007 0.0  3.0394890E-006  2.2319533E-007 0.0  2.6092512E-006  1.8878431E-007 0.0  2.2835996E-006  1.5404219E-007 0.0  2.1406036E-006  9.8177831E-008 0.0  1.4790911E-006 -2.3862592E-007 0.0  1.1035700E-006 -2.2904203E-007 0.0  9.0840303E-007 -1.9825370E-007 0.0  7.5471437E-007 -1.7089393E-007 0.0  6.3609012E-007 -1.4589179E-007 0.0  5.4077353E-007 -1.2536111E-007 0.0  4.6272089E-007 -1.0784027E-007 0.0  3.9794310E-007 -9.3030434E-008 0.0  3.4361617E-007 -8.0422971E-008 0.0  2.9764464E-007 -6.9626505E-008 0.0  2.5841574E-007 -6.0298725E-008 0.0  2.2464253E-007 -5.2155317E-008 0.0  1.9524477E-007 -4.4898913E-008 0.0  1.6910737E-007 -3.8226421E-008 0.0  1.4584374E-007 -3.1529044E-008 0.0  1.2031720E-007 -2.3778977E-008 0.0  1.0142566E-007 -2.2547178E-009 0.0  1.0429326E-007  2.3744253E-009 0.0  1.0056617E-007  4.5781773E-009 0.0  9.5649909E-008  5.7995557E-009 0.0  8.9602119E-008  6.5262308E-009 0.0  8.2805103E-008  7.1443163E-009 0.0  7.5452483E-008  8.0784375E-009 0.0  6.5284682E-008  9.9275346E-009 0.0  5.5506740E-008  2.0611260E-008 0.0  5.2457544E-008  1.9751329E-008 0.0  4.9149685E-008  1.8689367E-008 0.0  4.5743106E-008  1.7510436E-008 0.0  4.2349075E-008  1.6286653E-008 0.0  3.9033990E-008  1.5058778E-008 0.0  3.5844767E-008  1.3853354E-008 0.0  3.2814825E-008  1.2687110E-008 0.0  2.9970621E-008  1.1575499E-008 0.0  2.7339202E-008  1.0515432E-008 0.0  2.5006745E-008  9.5270625E-009 0.0  2.2782610E-008  8.5192999E-009 0.0  2.2512323E-008  7.3605366E-009 0.0  1.4533025E-008  1.1928896E-009 0.0  9.8405151E-009  8.8367727E-010 0.0  7.6062478E-009  6.3219822E-010 0.0  5.7092556E-009  4.6374220E-010 0.0  4.3514072E-009  3.5419937E-010 0.0  3.3200963E-009  2.6468686E-010 0.0  2.5308226E-009  2.0397359E-010 0.0  1.9225018E-009  1.5761711E-010 0.0  1.4501873E-009  1.2314903E-010 0.0  1.0798416E-009  9.7325218E-011 0.0  7.8517339E-010  7.7930515E-011 0.0  5.4307030E-010  6.4055484E-011 0.0  3.4538814E-010  5.5009839E-011 0.0  1.5164507E-010  4.9777015E-011 0.0  4.3314542E-011  1.4896334E-010 0.0  3.8861890E-011  3.1475468E-010 0.0  3.1290695E-011  4.3872285E-010 0.0  2.1009143E-011  5.3814942E-010 0.0  1.0107764E-011  5.9932043E-010 0.0  3.2140714E-009  1.4361584E-008 0.0  6.3857615E-009  1.3511834E-008 0.0  9.5360722E-009  1.1988965E-008 0.0  1.2532461E-008  1.0051407E-008 0.0  1.5641102E-008  6.7972103E-009 0.0  2.1886120E-008  7.9338236E-008 0.0  4.1262115E-008  7.0012192E-008 0.0  5.6155703E-008  5.6075426E-008 0.0  6.5549803E-008  4.0562016E-008 0.0  6.9183607E-008  2.3504979E-008 0.0  4.4079982E-007  1.5714572E-006 0.0  8.4603386E-007  1.3978765E-006 0.0  1.2014628E-006  1.1171059E-006 0.0  1.4806984E-006  7.7804212E-007 0.0  1.6573370E-006  2.6585036E-007 0.0  1.3633132E-007  8.6163350E-009 0.0  1.4329915E-007  5.2613826E-008 0.0  1.3086947E-007  9.8709617E-008 0.0  1.0034075E-007  1.4040038E-007 0.0  5.4483500E-008  1.6899901E-007 0.0  5.7743081E-008  1.9067614E-008 0.0  5.9558631E-008  2.0787173E-008 0.0 -2.9167453E-010  6.9010842E-008 0.0 -3.2213616E-010  7.5522848E-008 0.0  1.5586046E-008  6.1058678E-008 0.0  2.9818584E-008  5.5372072E-008 0.0  4.1746522E-008  4.6692952E-008 0.0  5.0491362E-008  3.6606575E-008 0.0  5.5707083E-008  2.6271968E-008 0.0  3.7586983E-011  6.2026203E-010 0.0  7.4449988E-011  5.5686446E-010 0.0  1.0669289E-010  4.5402845E-010 0.0  1.3135612E-010  3.2571909E-010 0.0  1.4656808E-010  1.5421091E-010 0.0  8.7583730E-011  6.8426500E-010 0.0  1.7106380E-010  6.1445084E-010 0.0  2.4323683E-010  5.0091590E-010 0.0  2.9908484E-010  3.5937713E-010 0.0  3.3362319E-010  1.7023551E-010 0.0  1.3869629E-010  7.9590676E-010 0.0  2.6918135E-010  7.1485138E-010 0.0  3.8242828E-010  5.8259899E-010 0.0  4.7025247E-010  4.1806344E-010 0.0  5.2458131E-010  1.9813809E-010 0.0  2.0064121E-010  9.6307444E-010 0.0  3.8907977E-010  8.6509027E-010 0.0  5.5278972E-010  7.0511120E-010 0.0  6.7979110E-010  5.0627359E-010 0.0  7.5839492E-010  2.4023479E-010 0.0  2.7570892E-010  1.1970760E-009 0.0  5.3475726E-010  1.0755646E-009 0.0  7.5992494E-010  8.7691883E-010 0.0  9.3470436E-010  6.2997703E-010 0.0  1.0429370E-009  2.9922522E-010 0.0  3.6976501E-010  1.5141275E-009 0.0  7.1737841E-010  1.3608161E-009 0.0  1.0198119E-009  1.1098018E-009 0.0  1.2548073E-009  7.9757993E-010 0.0  1.4004773E-009  3.7888061E-010 0.0  4.8904256E-010  1.9361973E-009 0.0  9.4920590E-010  1.7409277E-009 0.0  1.3502262E-009  1.4205744E-009 0.0  1.6624136E-009  1.0215201E-009 0.0  1.8562709E-009  4.8535349E-010 0.0  6.4113291E-010  2.4920704E-009 0.0  1.2453582E-009  2.2425220E-009 0.0  1.7734413E-009  1.8318041E-009 0.0  2.1859310E-009  1.3187415E-009 0.0  2.4428718E-009  6.2717064E-010 0.0  8.3499519E-010  3.2188726E-009 0.0  1.6240779E-009  2.9005102E-009 0.0  2.3172060E-009  2.3738305E-009 0.0  2.8618132E-009  1.7125047E-009 0.0  3.2029640E-009  8.1542435E-010 0.0  1.0804632E-009  4.1637722E-009 0.0  2.1063185E-009  3.7612021E-009 0.0  3.0152277E-009  3.0890183E-009 0.0  3.7370599E-009  2.2365321E-009 0.0  4.1935506E-009  1.0695679E-009 0.0  1.3867625E-009  5.3797793E-009 0.0  2.7134032E-009  4.8796522E-009 0.0  3.9063033E-009  4.0314437E-009 0.0  4.8711015E-009  2.9422411E-009 0.0  5.4945603E-009  1.4206257E-009 0.0  1.7641924E-009  6.9361766E-009 0.0  3.4677552E-009  6.3311978E-009 0.0  5.0373068E-009  5.2888369E-009 0.0  6.3568138E-009  3.9082954E-009 0.0  7.2471691E-009  1.8841590E-009 0.0  2.2036014E-009  8.9115897E-009 0.0  4.3489720E-009  8.2099204E-009 0.0  6.3829297E-009  6.9810079E-009 0.0  8.2301721E-009  5.2689978E-009 0.0  9.5841009E-009  2.6024807E-009 0.0  2.7315385E-009  1.1360551E-008 0.0  5.4139272E-009  1.0582849E-008 0.0  8.0310224E-009  9.1718421E-009 0.0  1.0529446E-008  7.3434324E-009 0.0  1.2776981E-008  3.8387868E-009 0.0  5.0784282E-007  1.8173091E-006 0.0  9.8327214E-007  1.6506501E-006 0.0  1.4013506E-006  1.3336968E-006 0.0  1.7258039E-006  9.1926838E-007 0.0  1.9377380E-006  4.0024928E-007 0.0  5.9285084E-007  2.1171465E-006 0.0  1.1639965E-006  1.9530839E-006 0.0  1.6622946E-006  1.5872131E-006 0.0  2.0408727E-006  1.1114218E-006 0.0  2.2650097E-006  5.1314408E-007 0.0  6.9461011E-007  2.4909931E-006 0.0  1.3778791E-006  2.3250675E-006 0.0  1.9717815E-006  1.8968557E-006 0.0  2.4094867E-006  1.3406423E-006 0.0  2.6345730E-006  6.2608682E-007 0.0  8.2290695E-007  2.9663388E-006 0.0  1.6452533E-006  2.7901208E-006 0.0  2.3577381E-006  2.2826349E-006 0.0  2.8696516E-006  1.6169766E-006 0.0  3.1074602E-006  7.5705854E-007 0.0  9.8826285E-007  3.5816048E-006 0.0  1.9860037E-006  3.3834873E-006 0.0  2.8478619E-006  2.7716122E-006 0.0  3.4568343E-006  1.9638714E-006 0.0  3.7227039E-006  9.1714184E-007 0.0  1.2065422E-006  4.3934646E-006 0.0  2.4320256E-006  4.1570839E-006 0.0  3.4872815E-006  3.4047059E-006 0.0  4.2247859E-006  2.4104802E-006 0.0  4.5355657E-006  1.1223499E-006 0.0  1.5018458E-006  5.4835489E-006 0.0  3.0313725E-006  5.1851564E-006 0.0  4.3430119E-006  4.2418257E-006 0.0  5.2520976E-006  2.9985487E-006 0.0  5.6289018E-006  1.3913783E-006 0.0  1.9115138E-006  7.0000903E-006 0.0  3.8605524E-006  6.5867222E-006 0.0  5.5187141E-006  5.3684844E-006 0.0  6.6590148E-006  3.7861638E-006 0.0  7.1287456E-006  1.7497585E-006 0.0  2.4998936E-006  9.0902981E-006 0.0  5.0370537E-006  8.5403717E-006 0.0  7.1856851E-006  6.9238541E-006 0.0  8.6358827E-006  4.8549432E-006 0.0  9.2297699E-006  2.2313167E-006 0.0  3.2469378E-006  1.1872008E-005 0.0  6.8122411E-006  1.1201934E-005 0.0  9.6439687E-006  9.0800612E-006 0.0  1.1497154E-005  6.3250244E-006 0.0  1.2234249E-005  2.8809305E-006 0.0  4.7549414E-006  1.7404747E-005 0.0  9.5976305E-006  1.5318218E-005 0.0  1.3487750E-005  1.2114725E-005 0.0  1.5790925E-005  8.3302407E-006 0.0  1.6574567E-005  3.7428411E-006 0.0  8.3118155E-006  2.5163873E-005 0.0  1.5125900E-005  2.2761700E-005 0.0  2.0215940E-005  1.6395267E-005 0.0  2.2289964E-005  1.0510152E-005 0.0  2.2675372E-005  4.6473680E-006 0.0  1.8354922E-005  3.9993214E-005 0.0  3.0781471E-005  3.1866958E-005 0.0  3.1676871E-005  1.9477613E-005 0.0  3.1297138E-005  1.1396446E-005 0.0  3.0355680E-005  4.8913488E-006 0.0  6.4039279E-005  7.0064181E-005 0.0  5.4365678E-005  2.5028310E-005 0.0  4.5907372E-005  1.5383419E-005 0.0  4.0594965E-005  8.1064498E-006 0.0  3.7724437E-005  3.4309568E-006 0.0  2.4217337E-008  8.5881791E-008 0.0  4.5469052E-008  7.5446118E-008 0.0  6.1486877E-008  5.9636320E-008 0.0  7.1110005E-008  4.2709057E-008 0.0  7.3563803E-008  2.2290636E-008 0.0  2.6519077E-008  9.3074078E-008 0.0  4.9635734E-008  8.1309284E-008 0.0  6.6886133E-008  6.3552208E-008 0.0  7.6809343E-008  4.4428725E-008 0.0  7.8589695E-008  2.1677279E-008 0.0  2.9201094E-008  1.0095754E-007 0.0  5.4497670E-008  8.7650532E-008 0.0  7.3105334E-008  6.7728103E-008 0.0  8.3285759E-008  4.5997470E-008 0.0  8.4784212E-008  2.1366628E-008 0.0  3.2213193E-008  1.0963535E-007 0.0  5.9953177E-008  9.4562840E-008 0.0  8.0047492E-008  7.2120579E-008 0.0  9.0494119E-008  4.7513566E-008 0.0  9.1492950E-008  2.1029048E-008 0.0  3.5636317E-008  1.1921410E-007 0.0  6.6142711E-008  1.0211956E-007 0.0  8.7893588E-008  7.6775780E-008 0.0  9.8613952E-008  4.8870406E-008 0.0  9.8532284E-008  2.0481630E-008 0.0  3.9518303E-008  1.2980667E-007 0.0  7.3151762E-008  1.1039209E-007 0.0  9.6736322E-008  8.1735074E-008 0.0  1.0773461E-007  5.0008716E-008 0.0  1.0586068E-007  1.9488331E-008 0.0  4.3913505E-008  1.4152754E-007 0.0  8.1103416E-008  1.1943870E-007 0.0  1.0673584E-007  8.7035685E-008 0.0  1.1807760E-007  5.0962617E-008 0.0  1.1403431E-007  1.7511864E-008 0.0  4.8958315E-008  1.5457965E-007 0.0  9.0197420E-008  1.2940120E-007 0.0  1.1797451E-007  9.2774268E-008 0.0  1.2952317E-007  5.1692870E-008 0.0  1.2366234E-007  1.4137311E-008 0.0  3.7031574E-009  1.6198003E-008 0.0  7.3623015E-009  1.5253199E-008 0.0  1.1007515E-008  1.3673820E-008 0.0  1.4533203E-008  1.1390371E-008 0.0  1.8210473E-008  8.7038489E-009 0.0  4.1206080E-009  1.8206794E-008 0.0  8.1938672E-009  1.7174073E-008 0.0  1.2228510E-008  1.5428126E-008 0.0  1.6168184E-008  1.3123287E-008 0.0  2.0168246E-008  1.0224805E-008 0.0  4.6053087E-009  2.0397421E-008 0.0  9.1535307E-009  1.9259299E-008 0.0  1.3641446E-008  1.7330224E-008 0.0  1.7953759E-008  1.4928748E-008 0.0  2.2097206E-008  1.1573401E-008 0.0  5.1287785E-009  2.2786394E-008 0.0  1.0180042E-008  2.1523423E-008 0.0  1.5135944E-008  1.9394627E-008 0.0  1.9801116E-008  1.6745520E-008 0.0  2.4190303E-008  1.2935523E-008 0.0  5.7082585E-009  2.5378199E-008 0.0  1.1309484E-008  2.3963414E-008 0.0  1.6761222E-008  2.1591001E-008 0.0  2.1815251E-008  1.8624954E-008 0.0  2.6534620E-008  1.4310502E-008 0.0  6.3486514E-009  2.8182264E-008 0.0  1.2550406E-008  2.6582561E-008 0.0  1.8532470E-008  2.3912155E-008 0.0  2.4008060E-008  2.0571509E-008 0.0  2.9089021E-008  1.5739301E-008 0.0  7.0608757E-009  3.1217937E-008 0.0  1.3922576E-008  2.9392593E-008 0.0  2.0475783E-008  2.6363297E-008 0.0  2.6398226E-008  2.2587113E-008 0.0  3.1843987E-008  1.7216482E-008 0.0  7.8583137E-009  3.4503756E-008 0.0  1.5449655E-008  3.2402887E-008 0.0  2.2618326E-008  2.8944369E-008 0.0  2.9002365E-008  2.4664711E-008 0.0  3.4791137E-008  1.8729969E-008 0.0  8.7572948E-009  3.8062334E-008 0.0  1.7159793E-008  3.5625216E-008 0.0  2.4990633E-008  3.1653156E-008 0.0  3.1838906E-008  2.6787752E-008 0.0  3.7921082E-008  2.0259602E-008 0.0  9.7777230E-009  4.1919386E-008 0.0  1.9086825E-008  3.9071322E-008 0.0  2.7628926E-008  3.4482869E-008 0.0  3.4930513E-008  2.8928522E-008 0.0  4.1221609E-008  2.1772827E-008 0.0  1.0947712E-008  4.6107973E-008 0.0  2.1277169E-008  4.2754611E-008 0.0  3.0583299E-008  3.7420187E-008 0.0  3.8311758E-008  3.1044153E-008 0.0  4.4680004E-008  2.3220466E-008 0.0  1.2285112E-008  5.0665473E-008 0.0  2.3758175E-008  4.6690944E-008 0.0  3.3881119E-008  4.0450948E-008 0.0  4.1999262E-008  3.3081632E-008 0.0  4.8263548E-008  2.4527781E-008 0.0  1.3867571E-008  5.5632850E-008 0.0  2.6666924E-008  5.0892416E-008 0.0  3.7670726E-008  4.3555483E-008 0.0  4.6117193E-008  3.4963675E-008 0.0  5.1996514E-008  2.5588355E-008 0.0  6.0838396E-008  1.8889143E-007 0.0  1.1218751E-007  1.5711567E-007 0.0  1.4641692E-007  1.1001404E-007 0.0  1.6050163E-007  5.8647000E-008 0.0  1.5103288E-007  4.7233751E-009 0.0  6.8029690E-008  2.1172821E-007 0.0  1.2571301E-007  1.7628142E-007 0.0  1.6473371E-007  1.2329271E-007 0.0  1.8136524E-007  6.4988442E-008 0.0  1.7099313E-007  2.2445579E-009 0.0  7.6332889E-008  2.3795474E-007 0.0  1.4132810E-007  1.9830593E-007 0.0  1.8578752E-007  1.3873706E-007 0.0  2.0528475E-007  7.2339807E-008 0.0  1.9465959E-007  4.8593446E-010 0.0  8.5863928E-008  2.6815317E-007 0.0  1.5933066E-007  2.2373372E-007 0.0  2.1015174E-007  1.5663542E-007 0.0  2.3310473E-007  8.1160525E-008 0.0  2.2242048E-007 -9.2570915E-010 0.0  9.6814778E-008  3.0301903E-007 0.0  1.8007608E-007  2.5320949E-007 0.0  2.3832399E-007  1.7750170E-007 0.0  2.6538727E-007  9.1669473E-008 0.0  2.5447670E-007 -2.0406308E-009 0.0  1.0939482E-007  3.4337760E-007 0.0  2.0399531E-007  2.8748870E-007 0.0  2.7096318E-007  2.0196526E-007 0.0  3.0295857E-007  1.0422993E-007 0.0  2.9171837E-007 -2.9989679E-009 0.0  1.2383282E-007  3.9018208E-007 0.0  2.3156764E-007  3.2746740E-007 0.0  3.0881896E-007  2.3077320E-007 0.0  3.4679268E-007  1.1930600E-007 0.0  3.3520449E-007 -3.7986319E-009 0.0  1.4037899E-007  4.4456087E-007 0.0  2.6332852E-007  3.7423153E-007 0.0  3.5276397E-007  2.6486520E-007 0.0  3.9809263E-007  1.3750434E-007 0.0  3.8628207E-007 -4.3937378E-009 0.0  1.5930175E-007  5.0783438E-007 0.0  2.9986111E-007  4.2908547E-007 0.0  4.0379606E-007  3.0543036E-007 0.0  4.5833436E-007  1.5965827E-007 0.0  4.4666977E-007 -4.6713336E-009 0.0  1.8088398E-007  5.8153304E-007 0.0  3.4177853E-007  4.9358022E-007 0.0  4.6301925E-007  3.5397713E-007 0.0  5.2931194E-007  1.8693742E-007 0.0  5.1859149E-007 -4.3894425E-009 0.0  2.0542185E-007  6.6742102E-007 0.0  3.8969640E-007  5.6954863E-007 0.0  5.3158324E-007  4.1244780E-007 0.0  6.1316438E-007  2.2105620E-007 0.0  6.0498106E-007 -3.0891560E-009 0.0  2.3323175E-007  7.6749687E-007 0.0  4.4420627E-007  6.5906749E-007 0.0  6.1055060E-007  4.8322220E-007 0.0  7.1232419E-007  2.6445073E-007 0.0  7.0979794E-007  1.4536613E-010 0.0  2.6467023E-007  8.8401308E-007 0.0  5.0588418E-007  7.6441957E-007 0.0  7.0066976E-007  5.6915574E-007 0.0  8.2921895E-007  3.2110689E-007 0.0  8.3850447E-007  7.4258847E-009 0.0  2.9983683E-007  1.0196549E-006 0.0  5.7492683E-007  8.8798511E-007 0.0  8.0158302E-007  6.7355052E-007 0.0  9.6491344E-007  3.9692948E-007 0.0  9.9903521E-007  2.0501202E-008 0.0  3.4008727E-007  1.1769767E-006 0.0  6.5369076E-007  1.0331451E-006 0.0  9.1638785E-007  7.9846993E-007 0.0  1.1206074E-006  4.9732104E-007 0.0  1.2022843E-006  5.2077773E-008 0.0  3.8502875E-007  1.3596302E-006 0.0  7.3732778E-007  1.2021926E-006 0.0  1.0389188E-006  9.4263253E-007 0.0  1.2821533E-006  6.3240141E-007 0.0  1.4138833E-006  1.1960603E-007 0.0  1.7506381E-008  6.6614272E-008 0.0  3.3304708E-008  5.9923082E-008 0.0  4.6177194E-008  4.9817008E-008 0.0  5.5147252E-008  3.8116601E-008 0.0  5.9586134E-008  2.6385256E-008 0.0  1.9687977E-008  7.2697492E-008 0.0  3.7254377E-008  6.4790963E-008 0.0  5.1103365E-008  5.2987552E-008 0.0  6.0254252E-008  3.9381323E-008 0.0  6.4113760E-008  2.5634211E-008 0.0 
        </DataArray>
      </PointData>
      <Points>
        <DataArray type="Float64" NumberOfComponents="3" format="ascii">
  0.0000000E+000  0.0000000E+000 0.0
  0.5200000E+002  0.0000000E+000 0.0
  0.5200000E+002  0.6000000E+001 0.0
  0.3700000E+002  0.6000000E+001 0.0
  0.2800000E+002  0.9000000E+001 0.0
  0.2400000E+002  0.9000000E+001 0.0
  0.1500000E+002  0.6000000E+001 0.0
  0.0000000E+000  0.6000000E+001 0.0
  0.1500000E+002  0.0000000E+000 0.0
  0.2400000E+002  0.0000000E+000 0.0
  0.2800000E+002  0.0000000E+000 0.0
  0.3700000E+002  0.0000000E+000 0.0
  0.2250000E+002  0.8500000E+001 0.0
  0.2250000E+002  0.0000000E+000 0.0
  0.1000000E+001  0.0000000E+000 0.0
  0.2000000E+001  0.0000000E+000 0.0
  0.3000000E+001  0.0000000E+000 0.0
  0.4000000E+001  0.0000000E+000 0.0
  0.5000000E+001  0.0000000E+000 0.0
  0.6000000E+001  0.0000000E+000 0.0
  0.7000000E+001  0.0000000E+000 0.0
  0.8000000E+001  0.0000000E+000 0.0
  0.9000000E+001  0.0000000E+000 0.0
  0.1000000E+002  0.0000000E+000 0.0
  0.1100000E+002  0.0000000E+000 0.0
  0.1200000E+002  0.0000000E+000 0.0
  0.1300000E+002  0.0000000E+000 0.0
  0.1400000E+002  0.0000000E+000 0.0
  0.1553571E+002  0.0000000E+000 0.0
  0.1607143E+002  0.0000000E+000 0.0
  0.1660714E+002  0.0000000E+000 0.0
  0.1714286E+002  0.0000000E+000 0.0
  0.1767857E+002  0.0000000E+000 0.0
  0.1821429E+002  0.0000000E+000 0.0
  0.1875000E+002  0.0000000E+000 0.0
  0.1928571E+002  0.0000000E+000 0.0
  0.1982143E+002  0.0000000E+000 0.0
  0.2035714E+002  0.0000000E+000 0.0
  0.2089286E+002  0.0000000E+000 0.0
  0.2142857E+002  0.0000000E+000 0.0
  0.2196429E+002  0.0000000E+000 0.0
  0.2444444E+002  0.0000000E+000 0.0
  0.2488889E+002  0.0000000E+000 0.0
  0.2533333E+002  0.0000000E+000 0.0
  0.2577778E+002  0.0000000E+000 0.0
  0.2622222E+002  0.0000000E+000 0.0
  0.2666667E+002  0.0000000E+000 0.0
  0.2711111E+002  0.0000000E+000 0.0
  0.2755556E+002  0.0000000E+000 0.0
  0.2852941E+002  0.0000000E+000 0.0
  0.2905882E+002  0.0000000E+000 0.0
  0.2958824E+002  0.0000000E+000 0.0
  0.3011765E+002  0.0000000E+000 0.0
  0.3064706E+002  0.0000000E+000 0.0
  0.3117647E+002  0.0000000E+000 0.0
  0.3170588E+002  0.0000000E+000 0.0
  0.3223529E+002  0.0000000E+000 0.0
  0.3276471E+002  0.0000000E+000 0.0
  0.3329412E+002  0.0000000E+000 0.0
  0.3382353E+002  0.0000000E+000 0.0
  0.3435294E+002  0.0000000E+000 0.0
  0.3488235E+002  0.0000000E+000 0.0
  0.3541176E+002  0.0000000E+000 0.0
  0.3594118E+002  0.0000000E+000 0.0
  0.3647059E+002  0.0000000E+000 0.0
  0.3747211E+002  0.0000000E+000 0.0
  0.3799142E+002  0.0000000E+000 0.0
  0.3856267E+002  0.0000000E+000 0.0