<VTKFile type="UnstructuredGrid" version="0.1" byte_order="LittleEndian">
  <UnstructuredGrid>
    <Piece NumberOfPoints="518" NumberOfCells="450">
      <PointData Scalars="charge" Vectors="flux">
        <DataArray type="Float64" Name="charge" NumberOfComponents="1" format="ascii">
 0.0 0.0 0.0 0.0 0.0 0.0 0.0 0.0 0.0 0.0 0.0 0.0 0.0 0.0 0.0 0.0 0.0 0.0 0.0 0.0 0.0 0.0 0.0 0.0 0.0 0.0 0.0 0.0 0.0 0.0 0.0 0.0 0.0 0.0 0.0 0.0 0.0 0.0 0.0 0.0 0.0 0.0 0.0 0.0 0.0 0.0 0.0 0.0 0.0 0.0 0.0 0.0 0.0 0.0 0.0 0.0 0.0 0.0 0.0 0.0 0.0 0.0 0.0 0.0 0.0 0.0 0.0 0.0 0.0 0.0 0.0 0.0 0.0 0.0 0.0 0.0 0.0 0.0 0.0 0.0 0.0 0.0 0.0 0.0 0.0 0.0 0.0 0.0 0.0 0.0 0.0 0.0 0.0 0.0 0.0 0.0 0.0 0.0 0.0 0.0 0.0 0.0 0.0 0.0 0.0 0.0 0.0 0.0 0.0 0.0 0.0 0.0 0.0 0.0 0.0 0.0 0.0 0.0 0.0 0.0 0.0 0.0 0.0 0.0 0.0 0.0 0.0 0.0 0.0 0.0 0.0 0.0 0.0 0.0 0.0 0.0 0.0 0.0 0.0 0.0 0.0 0.0 0.0 0.0 0.0 0.0 0.0 0.0 0.0 0.0 0.0 0.0 0.0 0.0 0.0 0.0 0.0 0.0 0.0 0.0 0.0 0.0 0.0 0.0 0.0 0.0 0.0 0.0 0.0 0.0 0.0 0.0 0.0 0.0 0.0 0.0 0.0 0.0 0.0 0.0 0.0 0.0 0.0 0.0 0.0 0.0 0.0 0.0 0.0 0.0 0.0 0.0 0.0 0.0 0.0 0.0 0.0 0.0 0.0 0.0 0.0 0.0 0.0 0.0 0.0 0.0 0.0 0.0 0.0 0.0 0.0 0.0 0.0 0.0 0.0 0.0 0.0 0.0 0.0 0.0 0.0 0.0 0.0 0.0 0.0 0.0 0.0 0.0 0.0 0.0 0.0 0.0 0.0 0.0 0.0 0.0 0.0 0.0 0.0 0.0 0.0 0.0 0.0 0.0 0.0 0.0 0.0 0.0 0.0 0.0 0.0 0.0 0.0 0.0 0.0 0.0 0.0 0.0 0.0 0.0 0.0 0.0 0.0 0.0 0.0 0.0 0.0 0.0 0.0 0.0 0.0 0.0 0.0 0.0 0.0 0.0 0.0 0.0 0.0 0.0 0.0 0.0 0.0 0.0 0.0 0.0 0.0 0.0 0.0 0.0 0.0 0.0 0.0 0.0 0.0 0.0 0.0 0.0 0.0 0.0 0.0 0.0 0.0 0.0 0.0 0.0 0.0 0.0 0.0 0.0 0.0 0.0 0.0 0.0 0.0 0.0 0.0 0.0 0.0 0.0 0.0 0.0 0.0 0.0 0.0 0.0 0.0 0.0 0.0 0.0 0.0 0.0 0.0 0.0 0.0 0.0 0.0 0.0 0.0 0.0 0.0 0.0 0.0 0.0 0.0 0.0 0.0 0.0 0.0 0.0 0.0 0.0 0.0 0.0 0.0 0.0 0.0 0.0 0.0 0.0 0.0 0.0 0.0 0.0 0.0 0.0 0.0 0.0 0.0 0.0 0.0 0.0 0.0 0.0 0.0 0.0 0.0 0.0 0.0 0.0 0.0 0.0 0.0 0.0 0.0 0.0 0.0 0.0 0.0 0.0 0.0 0.0 0.0 0.0 0.0 0.0 0.0 0.0 0.0 0.0 0.0 0.0 0.0 0.0 0.0 0.0 0.0 0.0 0.0 0.0 0.0 0.0 0.0 0.0 0.0 0.0 0.0 0.0 0.0 0.0 0.0 0.0 0.0 0.0 0.0 0.0 0.0 0.0 0.0 0.0 0.0 0.0 0.0 0.0 0.0 0.0 0.0 0.0 0.0 0.0 0.0 0.0 0.0 0.0 0.0 0.0 0.0 0.0 0.0 0.0 0.0 0.0 0.0 0.0 0.0 0.0 0.0 0.0 0.0 0.0 0.0 0.0 0.0 0.0 0.0 0.0 0.0 0.0 0.0 0.0 0.0 0.0 0.0 0.0 0.0 0.0 0.0 0.0 0.0 0.0 0.0 0.0 0.0 0.0 0.0 0.0 0.0 0.0 0.0 0.0 0.0 0.0 0.0 0.0 0.0 0.0 0.0 0.0 0.0 0.0 0.0 0.0 0.0 0.0 0.0 0.0 0.0 0.0 0.0 0.0 0.0 0.0 0.0 0.0 0.0 0.0 0.0 0.0 
        </DataArray>
        <DataArray type="Float64" Name="flux" NumberOfComponents="3" format="ascii">
 0.0 0.0 0.0 0.0 0.0 0.0 0.0 0.0 0.0 0.0 0.0 0.0 0.0 0.0 0.0 0.0 0.0 0.0 0.0 0.0 0.0 0.0 0.0 0.0 0.0 0.0 0.0 0.0 0.0 0.0 0.0 0.0 0.0 0.0 0.0 0.0 0.0 0.0 0.0 0.0 0.0 0.0 0.0 0.0 0.0 0.0 0.0 0.0 0.0 0.0 0.0 0.0 0.0 0.0 0.0 0.0 0.0 0.0 0.0 0.0 0.0 0.0 0.0 0.0 0.0 0.0 0.0 0.0 0.0 0.0 0.0 0.0 0.0 0.0 0.0 0.0 0.0 0.0 0.0 0.0 0.0 0.0 0.0 0.0 0.0 0.0 0.0 0.0 0.0 0.0 0.0 0.0 0.0 0.0 0.0 0.0 0.0 0.0 0.0 0.0 0.0 0.0 0.0 0.0 0.0 0.0 0.0 0.0 0.0 0.0 0.0 0.0 0.0 0.0 0.0 0.0 0.0 0.0 0.0 0.0 0.0 0.0 0.0 0.0 0.0 0.0 0.0 0.0 0.0 0.0 0.0 0.0 0.0 0.0 0.0 0.0 0.0 0.0 0.0 0.0 0.0 0.0 0.0 0.0 0.0 0.0 0.0 0.0 0.0 0.0 0.0 0.0 0.0 0.0 0.0 0.0 0.0 0.0 0.0 0.0 0.0 0.0 0.0 0.0 0.0 0.0 0.0 0.0 0.0 0.0 0.0 0.0 0.0 0.0 0.0 0.0 0.0 0.0 0.0 0.0 0.0 0.0 0.0 0.0 0.0 0.0 0.0 0.0 0.0 0.0 0.0 0.0 0.0 0.0 0.0 0.0 0.0 0.0 0.0 0.0 0.0 0.0 0.0 0.0 0.0 0.0 0.0 0.0 0.0 0.0 0.0 0.0 0.0 0.0 0.0 0.0 0.0 0.0 0.0 0.0 0.0 0.0 0.0 0.0 0.0 0.0 0.0 0.0 0.0 0.0 0.0 0.0 0.0 0.0 0.0 0.0 0.0 0.0 0.0 0.0 0.0 0.0 0.0 0.0 0.0 0.0 0.0 0.0 0.0 0.0 0.0 0.0 0.0 0.0 0.0 0.0 0.0 0.0 0.0 0.0 0.0 0.0 0.0 0.0 0.0 0.0 0.0 0.0 0.0 0.0 0.0 0.0 0.0 0.0 0.0 0.0 0.0 0.0 0.0 0.0 0.0 0.0 0.0 0.0 0.0 0.0 0.0 0.0 0.0 0.0 0.0 0.0 0.0 0.0 0.0 0.0 0.0 0.0 0.0 0.0 0.0 0.0 0.0 0.0 0.0 0.0 0.0 0.0 0.0 0.0 0.0 0.0 0.0 0.0 0.0 0.0 0.0 0.0 0.0 0.0 0.0 0.0 0.0 0.0 0.0 0.0 0.0 0.0 0.0 0.0 0.0 0.0 0.0 0.0 0.0 0.0 0.0 0.0 0.0 0.0 0.0 0.0 0.0 0.0 0.0 0.0 0.0 0.0 0.0 0.0 0.0 0.0 0.0 0.0 0.0 0.0 0.0 0.0 0.0 0.0 0.0 0.0 0.0 0.0 0.0 0.0 0.0 0.0 0.0 0.0 0.0 0.0 0.0 0.0 0.0 0.0 0.0 0.0 0.0 0.0 0.0 0.0 0.0 0.0 0.0 0.0 0.0 0.0 0.0 0.0 0.0 0.0 0.0 0.0 0.0 0.0 0.0 0.0 0.0 0.0 0.0 0.0 0.0 0.0 0.0 0.0 0.0 0.0 0.0 0.0 0.0 0.0 0.0 0.0 0.0 0.0 0.0 0.0 0.0 0.0 0.0 0.0 0.0 0.0 0.0 0.0 0.0 0.0 0.0 0.0 0.0 0.0 0.0 0.0 0.0 0.0 0.0 0.0 0.0 0.0 0.0 0.0 0.0 0.0 0.0 0.0 0.0 0.0 0.0 0.0 0.0 0.0 0.0 0.0 0.0 0.0 0.0 0.0 0.0 0.0 0.0 0.0 0.0 0.0 0.0 0.0 0.0 0.0 0.0 0.0 0.0 0.0 0.0 0.0 0.0 0.0 0.0 0.0 0.0 0.0 0.0 0.0 0.0 0.0 0.0 0.0 0.0 0.0 0.0 0.0 0.0 0.0 0.0 0.0 0.0 0.0 0.0 0.0 0.0 0.0 0.0 0.0 0.0 0.0 0.0 0.0 0.0 0.0 0.0 0.0 0.0 0.0 0.0 0.0 0.0 0.0 0.0 0.0 0.0 0.0 0.0 0.0 0.0 0.0 0.0 0.0 0.0 0.0 0.0 0.0 0.0 0.0 0.0 0.0 0.0 0.0 0.0 0.0 0.0 0.0 0.0 0.0 0.0 0.0 0.0 0.0 0.0 0.0 0.0 0.0 0.0 0.0 0.0 0.0 0.0 0.0 0.0 0.0 0.0 0.0 0.0 0.0 0.0 0.0 0.0 0.0 0.0 0.0 0.0 0.0 0.0 0.0 0.0 0.0 0.0 0.0 0.0 0.0 0.0 0.0 0.0 0.0 0.0 0.0 0.0 0.0 0.0 0.0 0.0 0.0 0.0 0.0 0.0 0.0 0.0 0.0 0.0 0.0 0.0 0.0 0.0 0.0 0.0 0.0 0.0 0.0 0.0 0.0 0.0 0.0 0.0 0.0 0.0 0.0 0.0 0.0 0.0 0.0 0.0 0.0 0.0 0.0 0.0 0.0 0.0 0.0 0.0 0.0 0.0 0.0 0.0 0.0 0.0 0.0 0.0 0.0 0.0 0.0 0.0 0.0 0.0 0.0 0.0 0.0 0.0 0.0 0.0 0.0 0.0 0.0 0.0 0.0 0.0 0.0 0.0 0.0 0.0 0.0 0.0 0.0 0.0 0.0 0.0 0.0 0.0 0.0 0.0 0.0 0.0 0.0 0.0 0.0 0.0 0.0 0.0 0.0 0.0 0.0 0.0 0.0 0.0 0.0 0.0 0.0 0.0 0.0 0.0 0.0 0.0 0.0 0.0 0.0 0.0 0.0 0.0 0.0 0.0 0.0 0.0 0.0 0.0 0.0 0.0 0.0 0.0 0.0 0.0 0.0 0.0 0.0 0.0 0.0 0.0 0.0 0.0 0.0 0.0 0.0 0.0 0.0 0.0 0.0 0.0 0.0 0.0 0.0 0.0 0.0 0.0 0.0 0.0 0.0 0.0 0.0 0.0 0.0 0.0 0.0 0.0 0.0 0.0 0.0 0.0 0.0 0.0 0.0 0.0 0.0 0.0 0.0 0.0 0.0 0.0 0.0 0.0 0.0 0.0 0.0 0.0 0.0 0.0 0.0 0.0 0.0 0.0 0.0 0.0 0.0 0.0 0.0 0.0 0.0 0.0 0.0 0.0 0.0 0.0 0.0 0.0 0.0 0.0 0.0 0.0 0.0 0.0 0.0 0.0 0.0 0.0 0.0 0.0 0.0 0.0 0.0 0.0 0.0 0.0 0.0 0.0 0.0 0.0 0.0 0.0 0.0 0.0 0.0 0.0 0.0 0.0 0.0 0.0 0.0 0.0 0.0 0.0 0.0 0.0 0.0 0.0 0.0 0.0 0.0 0.0 0.0 0.0 0.0 0.0 0.0 0.0 0.0 0.0 0.0 0.0 0.0 0.0 0.0 0.0 0.0 0.0 0.0 0.0 0.0 0.0 0.0 0.0 0.0 0.0 0.0 0.0 0.0 0.0 0.0 0.0 0.0 0.0 0.0 0.0 0.0 0.0 0.0 0.0 0.0 0.0 0.0 0.0 0.0 0.0 0.0 0.0 0.0 0.0 0.0 0.0 0.0 0.0 0.0 0.0 0.0 0.0 0.0 0.0 0.0 0.0 0.0 0.0 0.0 0.0 0.0 0.0 0.0 0.0 0.0 0.0 0.0 0.0 0.0 0.0 0.0 0.0 0.0 0.0 0.0 0.0 0.0 0.0 0.0 0.0 0.0 0.0 0.0 0.0 0.0 0.0 0.0 0.0 0.0 0.0 0.0 0.0 0.0 0.0 0.0 0.0 0.0 0.0 0.0 0.0 0.0 0.0 0.0 0.0 0.0 0.0 0.0 0.0 0.0 0.0 0.0 0.0 0.0 0.0 0.0 0.0 0.0 0.0 0.0 0.0 0.0 0.0 0.0 0.0 0.0 0.0 0.0 0.0 0.0 0.0 0.0 0.0 0.0 0.0 0.0 0.0 0.0 0.0 0.0 0.0 0.0 0.0 0.0 0.0 0.0 0.0 0.0 0.0 0.0 0.0 0.0 0.0 0.0 0.0 0.0 0.0 0.0 0.0 0.0 0.0 0.0 0.0 0.0 0.0 0.0 0.0 0.0 0.0 0.0 0.0 0.0 0.0 0.0 0.0 0.0 0.0 0.0 0.0 0.0 0.0 0.0 0.0 0.0 0.0 0.0 0.0 0.0 0.0 0.0 0.0 0.0 0.0 0.0 0.0 0.0 0.0 0.0 0.0 0.0 0.0 0.0 0.0 0.0 0.0 0.0 0.0 0.0 0.0 0.0 0.0 0.0 0.0 0.0 0.0 0.0 0.0 0.0 0.0 0.0 0.0 0.0 0.0 0.0 0.0 0.0 0.0 0.0 0.0 0.0 0.0 0.0 0.0 0.0 0.0 0.0 0.0 0.0 0.0 0.0 0.0 0.0 0.0 0.0 0.0 0.0 0.0 0.0 0.0 0.0 0.0 0.0 0.0 0.0 0.0 0.0 0.0 0.0 0.0 0.0 0.0 0.0 0.0 0.0 0.0 0.0 0.0 0.0 0.0 0.0 0.0 0.0 0.0 0.0 0.0 0.0 0.0 0.0 0.0 0.0 0.0 0.0 0.0 0.0 0.0 0.0 0.0 0.0 0.0 0.0 0.0 0.0 0.0 0.0 0.0 0.0 0.0 0.0 0.0 0.0 0.0 0.0 0.0 0.0 0.0 0.0 0.0 0.0 0.0 0.0 0.0 0.0 0.0 0.0 0.0 0.0 0.0 0.0 0.0 0.0 0.0 0.0 0.0 0.0 0.0 0.0 0.0 0.0 0.0 0.0 0.0 0.0 0.0 0.0 0.0 0.0 0.0 0.0 0.0 0.0 0.0 0.0 0.0 0.0 0.0 0.0 0.0 0.0 0.0 0.0 0.0 0.0 0.0 0.0 0.0 0.0 0.0 0.0 0.0 0.0 0.0 0.0 0.0 0.0 0.0 0.0 0.0 0.0 0.0 0.0 0.0 0.0 0.0 0.0 0.0 0.0 0.0 0.0 0.0 0.0 0.0 0.0 0.0 0.0 0.0 0.0 0.0 0.0 0.0 0.0 0.0 0.0 0.0 0.0 0.0 0.0 0.0 0.0 0.0 0.0 0.0 0.0 0.0 0.0 0.0 0.0 0.0 0.0 0.0 0.0 0.0 0.0 0.0 0.0 0.0 0.0 0.0 0.0 0.0 0.0 0.0 0.0 0.0 0.0 0.0 0.0 0.0 0.0 0.0 0.0 0.0 0.0 0.0 0.0 0.0 0.0 0.0 0.0 0.0 0.0 0.0 0.0 0.0 0.0 0.0 0.0 0.0 0.0 0.0 0.0 0.0 0.0 0.0 0.0 0.0 0.0 0.0 0.0 0.0 0.0 0.0 0.0 0.0 0.0 0.0 0.0 0.0 0.0 0.0 0.0 0.0 0.0 0.0 0.0 0.0 0.0 0.0 0.0 0.0 0.0 0.0 0.0 0.0 0.0 0.0 0.0 0.0 0.0 0.0 0.0 0.0 0.0 0.0 0.0 0.0 0.0 0.0 0.0 0.0 0.0 0.0 0.0 0.0 0.0 0.0 0.0 0.0 0.0 0.0 0.0 0.0 0.0 0.0 0.0 0.0 0.0 0.0 0.0 0.0 0.0 0.0 0.0 0.0 0.0 0.0 0.0 0.0 0.0 0.0 0.0 0.0 0.0 0.0 0.0 0.0 0.0 0.0 0.0 0.0 0.0 0.0 0.0 0.0 0.0 0.0 0.0 0.0 0.0 0.0 0.0 0.0 0.0 0.0 0.0 0.0 0.0 0.0 0.0 0.0 0.0 0.0 0.0 0.0 0.0 0.0 0.0 0.0 0.0 0.0 0.0 0.0 0.0 0.0 0.0 0.0 0.0 0.0 0.0 0.0 0.0 0.0 0.0 0.0 0.0 0.0 0.0 0.0 0.0 0.0 0.0 0.0 0.0 0.0 0.0 0.0 0.0 0.0 0.0 0.0 0.0 0.0 0.0 0.0 0.0 0.0 0.0 0.0 0.0 0.0 0.0 0.0 0.0 0.0 0.0 0.0 0.0 0.0 0.0 0.0 0.0 0.0 0.0 0.0 0.0 0.0 0.0 0.0 0.0 0.0 0.0 0.0 0.0 0.0 0.0 0.0 0.0 0.0 0.0 0.0 0.0 0.0 0.0 0.0 0.0 0.0 0.0 0.0 0.0 0.0 0.0 0.0 0.0 0.0 0.0 0.0 0.0 0.0 0.0 0.0 0.0 0.0 0.0 0.0 0.0 0.0 0.0 0.0 0.0 0.0 0.0 0.0 0.0 0.0 0.0 0.0 0.0 0.0 0.0 0.0 0.0 0.0 0.0 0.0 0.0 0.0 0.0 0.0 0.0 0.0 0.0 0.0 0.0 0.0 0.0 0.0 0.0 0.0 0.0 0.0 0.0 0.0 0.0 0.0 0.0 0.0 0.0 0.0 0.0 0.0 0.0 0.0 0.0 0.0 0.0 0.0 0.0 0.0 0.0 0.0 0.0 0.0 0.0 0.0 0.0 0.0 0.0 0.0 0.0 
        </DataArray>
      </PointData>
      <Points>
        <DataArray type="Float64" NumberOfComponents="3" format="ascii">
  0.0000000E+000  0.0000000E+000 0.0
  0.5200000E+002  0.0000000E+000 0.0
  0.5200000E+002  0.6000000E+001 0.0
  0.3700000E+002  0.6000000E+001 0.0
  0.2800000E+002  0.9000000E+001 0.0
  0.2400000E+002  0.9000000E+001 0.0
  0.1500000E+002  0.6000000E+001 0.0
  0.0000000E+000  0.6000000E+001 0.0
  0.1500000E+002  0.0000000E+000 0.0
  0.2400000E+002  0.0000000E+000 0.0
  0.2800000E+002  0.0000000E+000 0.0
  0.3700000E+002  0.0000000E+000 0.0
  0.2250000E+002  0.8500000E+001 0.0
  0.2250000E+002  0.0000000E+000 0.0
  0.1000000E+001  0.0000000E+000 0.0
  0.2000000E+001  0.0000000E+000 0.0
  0.3000000E+001  0.0000000E+000 0.0
  0.4000000E+001  0.0000000E+000 0.0
  0.5000000E+001  0.0000000E+000 0.0
  0.6000000E+001  0.0000000E+000 0.0
  0.7000000E+001  0.0000000E+000 0.0
  0.8000000E+001  0.0000000E+000 0.0
  0.9000000E+001  0.0000000E+000 0.0
  0.1000000E+002  0.0000000E+000 0.0
  0.1100000E+002  0.0000000E+000 0.0
  0.1200000E+002  0.0000000E+000 0.0
  0.1300000E+002  0.0000000E+000 0.0
  0.1400000E+002  0.0000000E+000 0.0
  0.1553571E+002  0.0000000E+000 0.0
  0.1607143E+002  0.0000000E+000 0.0
  0.1660714E+002  0.0000000E+000 0.0
  0.1714286E+002  0.0000000E+000 0.0
  0.1767857E+002  0.0000000E+000 0.0
  0.1821429E+002  0.0000000E+000 0.0
  0.1875000E+002  0.0000000E+000 0.0
  0.1928571E+002  0.0000000E+000 0.0
  0.1982143E+002  0.0000000E+000 0.0
  0.2035714E+002  0.0000000E+000 0.0
  0.2089286E+002  0.0000000E+000 0.0
  0.2142857E+002  0.0000000E+000 0.0
  0.2196429E+002  0.0000000E+000 0.0
  0.2444444E+002  0.0000000E+000 0.0
  0.2488889E+002  0.0000000E+000 0.0
  0.2533333E+002  0.0000000E+000 0.0
  0.2577778E+002  0.0000000E+000 0.0
  0.2622222E+002  0.0000000E+000 0.0
  0.2666667E+002  0.0000000E+000 0.0
  0.2711111E+002  0.0000000E+000 0.0
  0.2755556E+002  0.0000000E+000 0.0
  0.2852941E+002  0.0000000E+000 0.0
  0.2905882E+002  0.0000000E+000 0.0
  0.2958824E+002  0.0000000E+000 0.0
  0.3011765E+002  0.0000000E+000 0.0
  0.3064706E+002  0.0000000E+000 0.0
  0.3117647E+002  0.0000000E+000 0.0
  0.3170588E+002  0.0000000E+000 0.0
  0.3223529E+002  0.0000000E+000 0.0
  0.3276471E+002  0.0000000E+000 0.0
  0.3329412E+002  0.0000000E+000 0.0
  0.3382353E+002  0.0000000E+000 0.0
  0.3435294E+002  0.0000000E+000 0.0
  0.3488235E+002  0.0000000E+000 0.0
  0.3541176E+002  0.0000000E+000 0.0
  0.3594118E+002  0.0000000E+000 0.0
  0.3647059E+002  0.0000000E+000 0.0
  0.3747211E+002  0.0000000E+000 0.0
  0.3799142E+002  0.0000000E+000 0.0
  0.3856267E+002  0.0000000E+000 0.0
  0.3919105E+002  0.0000000E+000 0.0
  0.3988226E+002  0.0000000E+000 0.0
  0.4064259E+002  0.0000000E+000 0.0
  0.4147896E+002  0.0000000E+000 0.0
  0.4239896E+002  0.0000000E+000 0.0
  0.4341096E+002  0.0000000E+000 0.0
  0.4452416E+002  0.0000000E+000 0.0
  0.4574869E+002  0.0000000E+000 0.0
  0.4709566E+002  0.0000000E+000 0.0
  0.4857734E+002  0.0000000E+000 0.0
  0.5020718E+002  0.0000000E+000 0.0
  0.5200000E+002  0.1000000E+001 0.0
  0.5200000E+002  0.2000000E+001 0.0
  0.5200000E+002  0.3000000E+001 0.0
  0.5200000E+002  0.4000000E+001 0.0
  0.5200000E+002  0.5000000E+001 0.0
  0.5020718E+002  0.6000000E+001 0.0
  0.4857734E+002  0.6000000E+001 0.0
  0.4709566E+002  0.6000000E+001 0.0
  0.4574869E+002  0.6000000E+001 0.0
  0.4452416E+002  0.6000000E+001 0.0
  0.4341096E+002  0.6000000E+001 0.0
  0.4239896E+002  0.6000000E+001 0.0
  0.4147896E+002  0.6000000E+001 0.0
  0.4064259E+002  0.6000000E+001 0.0
  0.3988226E+002  0.6000000E+001 0.0
  0.3919105E+002  0.6000000E+001 0.0
  0.3856267E+002  0.6000000E+001 0.0
  0.3799142E+002  0.6000000E+001 0.0
  0.3747211E+002  0.6000000E+001 0.0
  0.3647059E+002  0.6176471E+001 0.0
  0.3594118E+002  0.6352941E+001 0.0
  0.3541176E+002  0.6529412E+001 0.0
  0.3488235E+002  0.6705882E+001 0.0
  0.3435294E+002  0.6882353E+001 0.0
  0.3382353E+002  0.7058824E+001 0.0
  0.3329412E+002  0.7235294E+001 0.0
  0.3276471E+002  0.7411765E+001 0.0
  0.3223529E+002  0.7588235E+001 0.0
  0.3170588E+002  0.7764706E+001 0.0
  0.3117647E+002  0.7941176E+001 0.0
  0.3064706E+002  0.8117647E+001 0.0
  0.3011765E+002  0.8294118E+001 0.0
  0.2958824E+002  0.8470588E+001 0.0
  0.2905882E+002  0.8647059E+001 0.0
  0.2852941E+002  0.8823529E+001 0.0
  0.2755556E+002  0.9000000E+001 0.0
  0.2711111E+002  0.9000000E+001 0.0
  0.2666667E+002  0.9000000E+001 0.0
  0.2622222E+002  0.9000000E+001 0.0
  0.2577778E+002  0.9000000E+001 0.0
  0.2533333E+002  0.9000000E+001 0.0
  0.2488889E+002  0.9000000E+001 0.0
  0.2444444E+002  0.9000000E+001 0.0
  0.2196429E+002  0.8321429E+001 0.0
  0.2142857E+002  0.8142857E+001 0.0
  0.2089286E+002  0.7964286E+001 0.0
  0.2035714E+002  0.7785714E+001 0.0
  0.1982143E+002  0.7607143E+001 0.0
  0.1928571E+002  0.7428571E+001 0.0
  0.1875000E+002  0.7250000E+001 0.0
  0.1821429E+002  0.7071429E+001 0.0
  0.1767857E+002  0.6892857E+001 0.0
  0.1714286E+002  0.6714286E+001 0.0
  0.1660714E+002  0.6535714E+001 0.0
  0.1607143E+002  0.6357143E+001 0.0
  0.1553571E+002  0.6178571E+001 0.0
  0.1400000E+002  0.6000000E+001 0.0
  0.1300000E+002  0.6000000E+001 0.0
  0.1200000E+002  0.6000000E+001 0.0
  0.1100000E+002  0.6000000E+001 0.0
  0.1000000E+002  0.6000000E+001 0.0
  0.9000000E+001  0.6000000E+001 0.0
  0.8000000E+001  0.6000000E+001 0.0
  0.7000000E+001  0.6000000E+001 0.0
  0.6000000E+001  0.6000000E+001 0.0
  0.5000000E+001  0.6000000E+001 0.0
  0.4000000E+001  0.6000000E+001 0.0
  0.3000000E+001  0.6000000E+001 0.0
  0.2000000E+001  0.6000000E+001 0.0
  0.1000000E+001  0.6000000E+001 0.0
  0.0000000E+000  0.5000000E+001 0.0
  0.0000000E+000  0.4000000E+001 0.0
  0.0000000E+000  0.3000000E+001 0.0
  0.0000000E+000  0.2000000E+001 0.0
  0.0000000E+000  0.1000000E+001 0.0
  0.1500000E+002  0.1000000E+001 0.0
  0.1500000E+002  0.2000000E+001 0.0
  0.1500000E+002  0.3000000E+001 0.0
  0.1500000E+002  0.4000000E+001 0.0
  0.1500000E+002  0.5000000E+001 0.0
  0.2400000E+002  0.1500000E+001 0.0
  0.2400000E+002  0.3000000E+001 0.0
  0.2400000E+002  0.4500000E+001 0.0
  0.2400000E+002  0.6000000E+001 0.0
  0.2400000E+002  0.7500000E+001 0.0
  0.3700000E+002  0.1000000E+001 0.0
  0.3700000E+002  0.2000000E+001 0.0
  0.3700000E+002  0.3000000E+001 0.0
  0.3700000E+002  0.4000000E+001 0.0
  0.3700000E+002  0.5000000E+001 0.0
  0.2800000E+002  0.7500000E+001 0.0
  0.2800000E+002  0.6000000E+001 0.0
  0.2800000E+002  0.4500000E+001 0.0
  0.2800000E+002  0.3000000E+001 0.0
  0.2800000E+002  0.1500000E+001 0.0
  0.2350000E+002  0.8833333E+001 0.0
  0.2300000E+002  0.8666667E+001 0.0
  0.2300000E+002  0.0000000E+000 0.0
  0.2350000E+002  0.0000000E+000 0.0
  0.2250000E+002  0.1416667E+001 0.0
  0.2250000E+002  0.2833333E+001 0.0
  0.2250000E+002  0.4250000E+001 0.0
  0.2250000E+002  0.5666667E+001 0.0
  0.2250000E+002  0.7083333E+001 0.0
  0.1000000E+001  0.1000000E+001 0.0
  0.1000000E+001  0.2000000E+001 0.0
  0.1000000E+001  0.3000000E+001 0.0
  0.1000000E+001  0.4000000E+001 0.0
  0.1000000E+001  0.5000000E+001 0.0
  0.2000000E+001  0.1000000E+001 0.0
  0.2000000E+001  0.2000000E+001 0.0
  0.2000000E+001  0.3000000E+001 0.0
  0.2000000E+001  0.4000000E+001 0.0
  0.2000000E+001  0.5000000E+001 0.0
  0.3000000E+001  0.1000000E+001 0.0
  0.3000000E+001  0.2000000E+001 0.0
  0.3000000E+001  0.3000000E+001 0.0
  0.3000000E+001  0.4000000E+001 0.0
  0.3000000E+001  0.5000000E+001 0.0
  0.4000000E+001  0.1000000E+001 0.0
  0.4000000E+001  0.2000000E+001 0.0
  0.4000000E+001  0.3000000E+001 0.0
  0.4000000E+001  0.4000000E+001 0.0
  0.4000000E+001  0.5000000E+001 0.0
  0.5000000E+001  0.1000000E+001 0.0
  0.5000000E+001  0.2000000E+001 0.0
  0.5000000E+001  0.3000000E+001 0.0
  0.5000000E+001  0.4000000E+001 0.0
  0.5000000E+001  0.5000000E+001 0.0
  0.6000000E+001  0.1000000E+001 0.0
  0.6000000E+001  0.2000000E+001 0.0
  0.6000000E+001  0.3000000E+001 0.0
  0.6000000E+001  0.4000000E+001 0.0
  0.6000000E+001  0.5000000E+001 0.0
  0.7000000E+001  0.1000000E+001 0.0
  0.7000000E+001  0.2000000E+001 0.0
  0.7000000E+001  0.3000000E+001 0.0
  0.7000000E+001  0.4000000E+001 0.0
  0.7000000E+001  0.5000000E+001 0.0
  0.8000000E+001  0.1000000E+001 0.0
  0.8000000E+001  0.2000000E+001 0.0
  0.8000000E+001  0.3000000E+001 0.0
  0.8000000E+001  0.4000000E+001 0.0
  0.8000000E+001  0.5000000E+001 0.0
  0.9000000E+001  0.1000000E+001 0.0
  0.9000000E+001  0.2000000E+001 0.0
  0.9000000E+001  0.3000000E+001 0.0
  0.9000000E+001  0.4000000E+001 0.0
  0.9000000E+001  0.5000000E+001 0.0
  0.1000000E+002  0.1000000E+001 0.0
  0.1000000E+002  0.2000000E+001 0.0
  0.1000000E+002  0.3000000E+001 0.0
  0.1000000E+002  0.4000000E+001 0.0
  0.1000000E+002  0.5000000E+001 0.0
  0.1100000E+002  0.1000000E+001 0.0
  0.1100000E+002  0.2000000E+001 0.0
  0.1100000E+002  0.3000000E+001 0.0
  0.1100000E+002  0.4000000E+001 0.0
  0.1100000E+002  0.5000000E+001 0.0
  0.1200000E+002  0.1000000E+001 0.0
  0.1200000E+002  0.2000000E+001 0.0
  0.1200000E+002  0.3000000E+001 0.0
  0.1200000E+002  0.4000000E+001 0.0
  0.1200000E+002  0.5000000E+001 0.0
  0.1300000E+002  0.1000000E+001 0.0
  0.1300000E+002  0.2000000E+001 0.0
  0.1300000E+002  0.3000000E+001 0.0
  0.1300000E+002  0.4000000E+001 0.0
  0.1300000E+002  0.5000000E+001 0.0
  0.1400000E+002  0.1000000E+001 0.0
  0.1400000E+002  0.2000000E+001 0.0
  0.1400000E+002  0.3000000E+001 0.0
  0.1400000E+002  0.4000000E+001 0.0
  0.1400000E+002  0.5000000E+001 0.0
  0.3756332E+002  0.1000000E+001 0.0
  0.3760743E+002  0.2000000E+001 0.0
  0.3762099E+002  0.3000000E+001 0.0
  0.3760743E+002  0.4000000E+001 0.0
  0.3756332E+002  0.5000000E+001 0.0
  0.3814662E+002  0.1000000E+001 0.0
  0.3822730E+002  0.2000000E+001 0.0
  0.3825261E+002  0.3000000E+001 0.0
  0.3822730E+002  0.4000000E+001 0.0
  0.3814662E+002  0.5000000E+001 0.0
  0.3876234E+002  0.1000000E+001 0.0
  0.3887061E+002  0.2000000E+001 0.0
  0.3890509E+002  0.3000000E+001 0.0
  0.3887061E+002  0.4000000E+001 0.0
  0.3876234E+002  0.5000000E+001 0.0
  0.3942002E+002  0.1000000E+001 0.0
  0.3954736E+002  0.2000000E+001 0.0
  0.3958834E+002  0.3000000E+001 0.0
  0.3954736E+002  0.4000000E+001 0.0
  0.3942002E+002  0.5000000E+001 0.0
  0.4012818E+002  0.1000000E+001 0.0
  0.4026713E+002  0.2000000E+001 0.0
  0.4031215E+002  0.3000000E+001 0.0
  0.4026713E+002  0.4000000E+001 0.0
  0.4012818E+002  0.5000000E+001 0.0
  0.4089523E+002  0.1000000E+001 0.0
  0.4103952E+002  0.2000000E+001 0.0
  0.4108650E+002  0.3000000E+001 0.0
  0.4103952E+002  0.4000000E+001 0.0
  0.4089523E+002  0.5000000E+001 0.0
  0.4172998E+002  0.1000000E+001 0.0
  0.4187448E+002  0.2000000E+001 0.0
  0.4192171E+002  0.3000000E+001 0.0
  0.4187448E+002  0.4000000E+001 0.0
  0.4172998E+002  0.5000000E+001 0.0
  0.4264178E+002  0.1000000E+001 0.0
  0.4278246E+002  0.2000000E+001 0.0
  0.4282857E+002  0.3000000E+001 0.0
  0.4278246E+002  0.4000000E+001 0.0
  0.4264178E+002  0.5000000E+001 0.0
  0.4364066E+002  0.1000000E+001 0.0
  0.4377443E+002  0.2000000E+001 0.0
  0.4381838E+002  0.3000000E+001 0.0
  0.4377443E+002  0.4000000E+001 0.0
  0.4364066E+002  0.5000000E+001 0.0
  0.4473723E+002  0.1000000E+001 0.0
  0.4486176E+002  0.2000000E+001 0.0
  0.4490273E+002  0.3000000E+001 0.0
  0.4486176E+002  0.4000000E+001 0.0
  0.4473723E+002  0.5000000E+001 0.0
  0.4594249E+002  0.1000000E+001 0.0
  0.4605581E+002  0.2000000E+001 0.0
  0.4609309E+002  0.3000000E+001 0.0
  0.4605581E+002  0.4000000E+001 0.0
  0.4594249E+002  0.5000000E+001 0.0
  0.4726727E+002  0.1000000E+001 0.0
  0.4736697E+002  0.2000000E+001 0.0
  0.4739962E+002  0.3000000E+001 0.0
  0.4736697E+002  0.4000000E+001 0.0
  0.4726727E+002  0.5000000E+001 0.0
  0.4872070E+002  0.1000000E+001 0.0
  0.4880201E+002  0.2000000E+001 0.0
  0.4882832E+002  0.3000000E+001 0.0
  0.4880201E+002  0.4000000E+001 0.0
  0.4872070E+002  0.5000000E+001 0.0
  0.5030529E+002  0.1000000E+001 0.0
  0.5035708E+002  0.2000000E+001 0.0
  0.5037332E+002  0.3000000E+001 0.0
  0.5035708E+002  0.4000000E+001 0.0
  0.5030529E+002  0.5000000E+001 0.0
  0.2444444E+002  0.1500000E+001 0.0
  0.2444444E+002  0.3000000E+001 0.0
  0.2444444E+002  0.4500000E+001 0.0
  0.2444444E+002  0.6000000E+001 0.0
  0.2444444E+002  0.7500000E+001 0.0
  0.2488889E+002  0.1500000E+001 0.0
  0.2488889E+002  0.3000000E+001 0.0
  0.2488889E+002  0.4500000E+001 0.0
  0.2488889E+002  0.6000000E+001 0.0
  0.2488889E+002  0.7500000E+001 0.0
  0.2533333E+002  0.1500000E+001 0.0
  0.2533333E+002  0.3000000E+001 0.0
  0.2533333E+002  0.4500000E+001 0.0
  0.2533333E+002  0.6000000E+001 0.0
  0.2533333E+002  0.7500000E+001 0.0
  0.2577778E+002  0.1500000E+001 0.0
  0.2577778E+002  0.3000000E+001 0.0
  0.2577778E+002  0.4500000E+001 0.0
  0.2577778E+002  0.6000000E+001 0.0
  0.2577778E+002  0.7500000E+001 0.0
  0.2622222E+002  0.1500000E+001 0.0
  0.2622222E+002  0.3000000E+001 0.0
  0.2622222E+002  0.4500000E+001 0.0
  0.2622222E+002  0.6000000E+001 0.0
  0.2622222E+002  0.7500000E+001 0.0
  0.2666667E+002  0.1500000E+001 0.0
  0.2666667E+002  0.3000000E+001 0.0
  0.2666667E+002  0.4500000E+001 0.0
  0.2666667E+002  0.6000000E+001 0.0
  0.2666667E+002  0.7500000E+001 0.0
  0.2711111E+002  0.1500000E+001 0.0
  0.2711111E+002  0.3000000E+001 0.0
  0.2711111E+002  0.4500000E+001 0.0
  0.2711111E+002  0.6000000E+001 0.0
  0.2711111E+002  0.7500000E+001 0.0
  0.2755556E+002  0.1500000E+001 0.0
  0.2755556E+002  0.3000000E+001 0.0
  0.2755556E+002  0.4500000E+001 0.0
  0.2755556E+002  0.6000000E+001 0.0
  0.2755556E+002  0.7500000E+001 0.0
  0.1553571E+002  0.1023550E+001 0.0
  0.1553571E+002  0.2047554E+001 0.0
  0.1553571E+002  0.3072630E+001 0.0
  0.1553571E+002  0.4099886E+001 0.0
  0.1553571E+002  0.5132009E+001 0.0
  0.1607143E+002  0.1048117E+001 0.0
  0.1607143E+002  0.2097193E+001 0.0
  0.1607143E+002  0.3148534E+001 0.0
  0.1607143E+002  0.4204429E+001 0.0
  0.1607143E+002  0.5269852E+001 0.0
  0.1660714E+002  0.1073641E+001 0.0
  0.1660714E+002  0.2148758E+001 0.0
  0.1660714E+002  0.3227332E+001 0.0
  0.1660714E+002  0.4312692E+001 0.0
  0.1660714E+002  0.5411270E+001 0.0
  0.1714286E+002  0.1100065E+001 0.0
  0.1714286E+002  0.2202093E+001 0.0
  0.1714286E+002  0.3308668E+001 0.0
  0.1714286E+002  0.4423926E+001 0.0
  0.1714286E+002  0.5555085E+001 0.0
  0.1767857E+002  0.1127344E+001 0.0
  0.1767857E+002  0.2257073E+001 0.0
  0.1767857E+002  0.3392265E+001 0.0
  0.1767857E+002  0.4537613E+001 0.0
  0.1767857E+002  0.5700668E+001 0.0
  0.1821429E+002  0.1155451E+001 0.0
  0.1821429E+002  0.2313620E+001 0.0
  0.1821429E+002  0.3477943E+001 0.0
  0.1821429E+002  0.4653441E+001 0.0
  0.1821429E+002  0.5847701E+001 0.0
  0.1875000E+002  0.1184387E+001 0.0
  0.1875000E+002  0.2371712E+001 0.0
  0.1875000E+002  0.3565623E+001 0.0
  0.1875000E+002  0.4771266E+001 0.0
  0.1875000E+002  0.5996051E+001 0.0
  0.1928571E+002  0.1214179E+001 0.0
  0.1928571E+002  0.2431388E+001 0.0
  0.1928571E+002  0.3655331E+001 0.0
  0.1928571E+002  0.4891085E+001 0.0
  0.1928571E+002  0.6145713E+001 0.0
  0.1982143E+002  0.1244886E+001 0.0
  0.1982143E+002  0.2492750E+001 0.0
  0.1982143E+002  0.3747187E+001 0.0
  0.1982143E+002  0.5013015E+001 0.0
  0.1982143E+002  0.6296783E+001 0.0
  0.2035714E+002  0.1276600E+001 0.0
  0.2035714E+002  0.2555969E+001 0.0
  0.2035714E+002  0.3841413E+001 0.0
  0.2035714E+002  0.5137290E+001 0.0
  0.2035714E+002  0.6449447E+001 0.0
  0.2089286E+002  0.1309450E+001 0.0
  0.2089286E+002  0.2621283E+001 0.0
  0.2089286E+002  0.3938325E+001 0.0
  0.2089286E+002  0.5264256E+001 0.0
  0.2089286E+002  0.6603982E+001 0.0
  0.2142857E+002  0.1343599E+001 0.0
  0.2142857E+002  0.2689005E+001 0.0
  0.2142857E+002  0.4038350E+001 0.0
  0.2142857E+002  0.5394382E+001 0.0
  0.2142857E+002  0.6760772E+001 0.0
  0.2196429E+002  0.1379255E+001 0.0
  0.2196429E+002  0.2759529E+001 0.0
  0.2196429E+002  0.4142021E+001 0.0
  0.2196429E+002  0.5528267E+001 0.0
  0.2196429E+002  0.6920328E+001 0.0
  0.2852941E+002  0.1462575E+001 0.0
  0.2852941E+002  0.2926302E+001 0.0
  0.2852941E+002  0.4392458E+001 0.0
  0.2852941E+002  0.5862564E+001 0.0
  0.2852941E+002  0.7338563E+001 0.0
  0.2905882E+002  0.1426802E+001 0.0
  0.2905882E+002  0.2855674E+001 0.0
  0.2905882E+002  0.4288922E+001 0.0
  0.2905882E+002  0.5729304E+001 0.0
  0.2905882E+002  0.7180314E+001 0.0
  0.2958824E+002  0.1392442E+001 0.0
  0.2958824E+002  0.2787667E+001 0.0
  0.2958824E+002  0.4188786E+001 0.0
  0.2958824E+002  0.5599543E+001 0.0
  0.2958824E+002  0.7024646E+001 0.0
  0.3011765E+002  0.1359297E+001 0.0
  0.3011765E+002  0.2721903E+001 0.0
  0.3011765E+002  0.4091542E+001 0.0
  0.3011765E+002  0.5472720E+001 0.0
  0.3011765E+002  0.6871090E+001 0.0
  0.3064706E+002  0.1327199E+001 0.0
  0.3064706E+002  0.2658069E+001 0.0
  0.3064706E+002  0.3996770E+001 0.0
  0.3064706E+002  0.5348381E+001 0.0
  0.3064706E+002  0.6719278E+001 0.0
  0.3117647E+002  0.1296012E+001 0.0
  0.3117647E+002  0.2595910E+001 0.0
  0.3117647E+002  0.3904130E+001 0.0
  0.3117647E+002  0.5226157E+001 0.0
  0.3117647E+002  0.6568925E+001 0.0
  0.3170588E+002  0.1265630E+001 0.0
  0.3170588E+002  0.2535225E+001 0.0
  0.3170588E+002  0.3813355E+001 0.0
  0.3170588E+002  0.5105766E+001 0.0
  0.3170588E+002  0.6419811E+001 0.0
  0.3223529E+002  0.1235973E+001 0.0
  0.3223529E+002  0.2475864E+001 0.0
  0.3223529E+002  0.3724250E+001 0.0
  0.3223529E+002  0.4986998E+001 0.0
  0.3223529E+002  0.6271776E+001 0.0
  0.3276471E+002  0.1206985E+001 0.0
  0.3276471E+002  0.2417728E+001 0.0
  0.3276471E+002  0.3636686E+001 0.0
  0.3276471E+002  0.4869718E+001 0.0
  0.3276471E+002  0.6124713E+001 0.0
  0.3329412E+002  0.1178636E+001 0.0
  0.3329412E+002  0.2360765E+001 0.0
  0.3329412E+002  0.3550601E+001 0.0
  0.3329412E+002  0.4753865E+001 0.0
  0.3329412E+002  0.5978569E+001 0.0
  0.3382353E+002  0.1150918E+001 0.0
  0.3382353E+002  0.2304969E+001 0.0
  0.3382353E+002  0.3466004E+001 0.0
  0.3382353E+002  0.4639460E+001 0.0
  0.3382353E+002  0.5833355E+001 0.0
  0.3435294E+002  0.1123847E+001 0.0
  0.3435294E+002  0.2250382E+001 0.0
  0.3435294E+002  0.3382981E+001 0.0
  0.3435294E+002  0.4526622E+001 0.0
  0.3435294E+002  0.5689158E+001 0.0
  0.3488235E+002  0.1097460E+001 0.0
  0.3488235E+002  0.2197094E+001 0.0
  0.3488235E+002  0.3301694E+001 0.0
  0.3488235E+002  0.4415583E+001 0.0
  0.3488235E+002  0.5546178E+001 0.0
  0.3541176E+002  0.1071810E+001 0.0
  0.3541176E+002  0.2145236E+001 0.0
  0.3541176E+002  0.3222394E+001 0.0
  0.3541176E+002  0.4306729E+001 0.0
  0.3541176E+002  0.5404786E+001 0.0
  0.3594118E+002  0.1046966E+001 0.0
  0.3594118E+002  0.2094975E+001 0.0
  0.3594118E+002  0.3145412E+001 0.0
  0.3594118E+002  0.4200628E+001 0.0
  0.3594118E+002  0.5265650E+001 0.0
  0.3647059E+002  0.1023004E+001 0.0
  0.3647059E+002  0.2046501E+001 0.0
  0.3647059E+002  0.3071143E+001 0.0
  0.3647059E+002  0.4098067E+001 0.0
  0.3647059E+002  0.5129971E+001 0.0
  0.2300000E+002  0.1443396E+001 0.0
  0.2300000E+002  0.2886792E+001 0.0
  0.2300000E+002  0.4330193E+001 0.0
  0.2300000E+002  0.5773635E+001 0.0
  0.2300000E+002  0.7217539E+001 0.0
  0.2350000E+002  0.1471154E+001 0.0
  0.2350000E+002  0.2942308E+001 0.0
  0.2350000E+002  0.4413467E+001 0.0
  0.2350000E+002  0.5884688E+001 0.0
  0.2350000E+002  0.7356517E+001 0.0
        </DataArray>
      </Points>
      <Cells>
        <DataArray type="Int32" Name="connectivity" format="ascii">
 0 14 183 153 
 153 183 184 152 
 152 184 185 151 
 151 185 186 150 
 150 186 187 149 
 149 187 148 7 
 14 15 188 183 
 183 188 189 184 
 184 189 190 185 
 185 190 191 186 
 186 191 192 187 
 187 192 147 148 
 15 16 193 188 
 188 193 194 189 
 189 194 195 190 
 190 195 196 191 
 191 196 197 192 
 192 197 146 147 
 16 17 198 193 
 193 198 199 194 
 194 199 200 195 
 195 200 201 196 
 196 201 202 197 
 197 202 145 146 
 17 18 203 198 
 198 203 204 199 
 199 204 205 200 
 200 205 206 201 
 201 206 207 202 
 202 207 144 145 
 18 19 208 203 
 203 208 209 204 
 204 209 210 205 
 205 210 211 206 
 206 211 212 207 
 207 212 143 144 
 19 20 213 208 
 208 213 214 209 
 209 214 215 210 
 210 215 216 211 
 211 216 217 212 
 212 217 142 143 
 20 21 218 213 
 213 218 219 214 
 214 219 220 215 
 215 220 221 216 
 216 221 222 217 
 217 222 141 142 
 21 22 223 218 
 218 223 224 219 
 219 224 225 220 
 220 225 226 221 
 221 226 227 222 
 222 227 140 141 
 22 23 228 223 
 223 228 229 224 
 224 229 230 225 
 225 230 231 226 
 226 231 232 227 
 227 232 139 140 
 23 24 233 228 
 228 233 234 229 
 229 234 235 230 
 230 235 236 231 
 231 236 237 232 
 232 237 138 139 
 24 25 238 233 
 233 238 239 234 
 234 239 240 235 
 235 240 241 236 
 236 241 242 237 
 237 242 137 138 
 25 26 243 238 
 238 243 244 239 
 239 244 245 240 
 240 245 246 241 
 241 246 247 242 
 242 247 136 137 
 26 27 248 243 
 243 248 249 244 
 244 249 250 245 
 245 250 251 246 
 246 251 252 247 
 247 252 135 136 
 27 8 154 248 
 248 154 155 249 
 249 155 156 250 
 250 156 157 251 
 251 157 158 252 
 252 158 6 135 
 11 65 253 164 
 164 253 254 165 
 165 254 255 166 
 166 255 256 167 
 167 256 257 168 
 168 257 97 3 
 65 66 258 253 
 253 258 259 254 
 254 259 260 255 
 255 260 261 256 
 256 261 262 257 
 257 262 96 97 
 66 67 263 258 
 258 263 264 259 
 259 264 265 260 
 260 265 266 261 
 261 266 267 262 
 262 267 95 96 