# vtk DataFile Version 2.0
obtained via hydraulicmodule
ASCII
DATASET UNSTRUCTURED_GRID
POINTS 518 double
 1.00000000e+00  1.00000000e+00  0.00000000e+00
 1.00000000e+00  2.00000000e+00  0.00000000e+00
 1.00000000e+00  3.00000000e+00  0.00000000e+00
 1.00000000e+00  4.00000000e+00  0.00000000e+00
 1.00000000e+00  5.00000000e+00  0.00000000e+00
 2.00000000e+00  1.00000000e+00  0.00000000e+00
 2.00000000e+00  2.00000000e+00  0.00000000e+00
 2.00000000e+00  3.00000000e+00  0.00000000e+00
 2.00000000e+00  4.00000000e+00  0.00000000e+00
 2.00000000e+00  5.00000000e+00  0.00000000e+00
 3.00000000e+00  1.00000000e+00  0.00000000e+00
 3.00000000e+00  2.00000000e+00  0.00000000e+00
 3.00000000e+00  3.00000000e+00  0.00000000e+00
 3.00000000e+00  4.00000000e+00  0.00000000e+00
 3.00000000e+00  5.00000000e+00  0.00000000e+00
 4.00000000e+00  1.00000000e+00  0.00000000e+00
 4.00000000e+00  2.00000000e+00  0.00000000e+00
 4.00000000e+00  3.00000000e+00  0.00000000e+00
 4.00000000e+00  4.00000000e+00  0.00000000e+00
 4.00000000e+00  5.00000000e+00  0.00000000e+00
 5.00000000e+00  1.00000000e+00  0.00000000e+00
 5.00000000e+00  2.00000000e+00  0.00000000e+00
 5.00000000e+00  3.00000000e+00  0.00000000e+00
 5.00000000e+00  4.00000000e+00  0.00000000e+00
 5.00000000e+00  5.00000000e+00  0.00000000e+00
 6.00000000e+00  1.00000000e+00  0.00000000e+00
 6.00000000e+00  2.00000000e+00  0.00000000e+00
 6.00000000e+00  3.00000000e+00  0.00000000e+00
 6.00000000e+00  4.00000000e+00  0.00000000e+00
 6.00000000e+00  5.00000000e+00  0.00000000e+00
 7.00000000e+00  1.00000000e+00  0.00000000e+00
 7.00000000e+00  2.00000000e+00  0.00000000e+00
 7.00000000e+00  3.00000000e+00  0.00000000e+00
 7.00000000e+00  4.00000000e+00  0.00000000e+00
 7.00000000e+00  5.00000000e+00  0.00000000e+00
 8.00000000e+00  1.00000000e+00  0.00000000e+00
 8.00000000e+00  2.00000000e+00  0.00000000e+00
 8.00000000e+00  3.00000000e+00  0.00000000e+00
 8.00000000e+00  4.00000000e+00  0.00000000e+00
 8.00000000e+00  5.00000000e+00  0.00000000e+00
 9.00000000e+00  1.00000000e+00  0.00000000e+00
 9.00000000e+00  2.00000000e+00  0.00000000e+00
 9.00000000e+00  3.00000000e+00  0.00000000e+00
 9.00000000e+00  4.00000000e+00  0.00000000e+00
 9.00000000e+00  5.00000000e+00  0.00000000e+00
 1.00000000e+01  1.00000000e+00  0.00000000e+00
 1.00000000e+01  2.00000000e+00  0.00000000e+00
 1.00000000e+01  3.00000000e+00  0.00000000e+00
 1.00000000e+01  4.00000000e+00  0.00000000e+00
 1.00000000e+01  5.00000000e+00  0.00000000e+00
 1.10000000e+01  1.00000000e+00  0.00000000e+00
 1.10000000e+01  2.00000000e+00  0.00000000e+00
 1.10000000e+01  3.00000000e+00  0.00000000e+00
 1.10000000e+01  4.00000000e+00  0.00000000e+00
 1.10000000e+01  5.00000000e+00  0.00000000e+00
 1.20000000e+01  1.00000000e+00  0.00000000e+00
 1.20000000e+01  2.00000000e+00  0.00000000e+00
 1.20000000e+01  3.00000000e+00  0.00000000e+00
 1.20000000e+01  4.00000000e+00  0.00000000e+00
 1.20000000e+01  5.00000000e+00  0.00000000e+00
 1.30000000e+01  1.00000000e+00  0.00000000e+00
 1.30000000e+01  2.00000000e+00  0.00000000e+00
 1.30000000e+01  3.00000000e+00  0.00000000e+00
 1.30000000e+01  4.00000000e+00  0.00000000e+00
 1.30000000e+01  5.00000000e+00  0.00000000e+00
 1.40000000e+01  1.00000000e+00  0.00000000e+00
 1.40000000e+01  2.00000000e+00  0.00000000e+00
 1.40000000e+01  3.00000000e+00  0.00000000e+00
 1.40000000e+01  4.00000000e+00  0.00000000e+00
 1.40000000e+01  5.00000000e+00  0.00000000e+00
 1.50000000e+01  1.00000000e+00  0.00000000e+00
 1.50000000e+01  2.00000000e+00  0.00000000e+00
 1.50000000e+01  3.00000000e+00  0.00000000e+00
 1.50000000e+01  4.00000000e+00  0.00000000e+00
 1.50000000e+01  5.00000000e+00  0.00000000e+00
 3.75633240e+01  1.00000000e+00  0.00000000e+00
 3.70000000e+01  1.00000000e+00  0.00000000e+00
 3.76074319e+01  2.00000000e+00  0.00000000e+00
 3.70000000e+01  2.00000000e+00  0.00000000e+00
 3.76209860e+01  3.00000000e+00  0.00000000e+00
 3.70000000e+01  3.00000000e+00  0.00000000e+00
 3.76074319e+01  4.00000000e+00  0.00000000e+00
 3.70000000e+01  4.00000000e+00  0.00000000e+00
 3.75633240e+01  5.00000000e+00  0.00000000e+00
 3.70000000e+01  5.00000000e+00  0.00000000e+00
 3.81466154e+01  1.00000000e+00  0.00000000e+00
 3.82272964e+01  2.00000000e+00  0.00000000e+00
 3.82526054e+01  3.00000000e+00  0.00000000e+00
 3.82272965e+01  4.00000000e+00  0.00000000e+00
 3.81466154e+01  5.00000000e+00  0.00000000e+00
 3.87623376e+01  1.00000000e+00  0.00000000e+00
 3.88706073e+01  2.00000000e+00  0.00000000e+00
 3.89050912e+01  3.00000000e+00  0.00000000e+00
 3.88706074e+01  4.00000000e+00  0.00000000e+00
 3.87623376e+01  5.00000000e+00  0.00000000e+00
 3.94200189e+01  1.00000000e+00  0.00000000e+00
 3.95473604e+01  2.00000000e+00  0.00000000e+00
 3.95883398e+01  3.00000000e+00  0.00000000e+00
 3.95473604e+01  4.00000000e+00  0.00000000e+00
 3.94200190e+01  5.00000000e+00  0.00000000e+00
 4.01281768e+01  1.00000000e+00  0.00000000e+00
 4.02671273e+01  2.00000000e+00  0.00000000e+00
 4.03121545e+01  3.00000000e+00  0.00000000e+00
 4.02671274e+01  4.00000000e+00  0.00000000e+00
 4.01281768e+01  5.00000000e+00  0.00000000e+00
 4.08952334e+01  1.00000000e+00  0.00000000e+00
 4.10395174e+01  2.00000000e+00  0.00000000e+00
 4.10865007e+01  3.00000000e+00  0.00000000e+00
 4.10395174e+01  4.00000000e+00  0.00000000e+00
 4.08952334e+01  5.00000000e+00  0.00000000e+00
 4.17299763e+01  1.00000000e+00  0.00000000e+00
 4.18744790e+01  2.00000000e+00  0.00000000e+00
 4.19217058e+01  3.00000000e+00  0.00000000e+00
 4.18744790e+01  4.00000000e+00  0.00000000e+00
 4.17299764e+01  5.00000000e+00  0.00000000e+00
 4.26417767e+01  1.00000000e+00  0.00000000e+00
 4.27824602e+01  2.00000000e+00  0.00000000e+00
 4.28285732e+01  3.00000000e+00  0.00000000e+00
 4.27824602e+01  4.00000000e+00  0.00000000e+00
 4.26417767e+01  5.00000000e+00  0.00000000e+00
 4.36406552e+01  1.00000000e+00  0.00000000e+00
 4.37744334e+01  2.00000000e+00  0.00000000e+00
 4.38183837e+01  3.00000000e+00  0.00000000e+00
 4.37744334e+01  4.00000000e+00  0.00000000e+00
 4.36406552e+01  5.00000000e+00  0.00000000e+00
 4.47372260e+01  1.00000000e+00  0.00000000e+00
 4.48617629e+01  2.00000000e+00  0.00000000e+00
 4.49027348e+01  3.00000000e+00  0.00000000e+00
 4.48617629e+01  4.00000000e+00  0.00000000e+00
 4.47372260e+01  5.00000000e+00  0.00000000e+00
 4.59424877e+01  1.00000000e+00  0.00000000e+00
 4.60558135e+01  2.00000000e+00  0.00000000e+00
 4.60930856e+01  3.00000000e+00  0.00000000e+00
 4.60558136e+01  4.00000000e+00  0.00000000e+00
 4.59424877e+01  5.00000000e+00  0.00000000e+00
 4.72672735e+01  1.00000000e+00  0.00000000e+00
 4.73669657e+01  2.00000000e+00  0.00000000e+00
 4.73996219e+01  3.00000000e+00  0.00000000e+00
 4.73669657e+01  4.00000000e+00  0.00000000e+00
 4.72672735e+01  5.00000000e+00  0.00000000e+00
 4.87206996e+01  1.00000000e+00  0.00000000e+00
 4.88020121e+01  2.00000000e+00  0.00000000e+00
 4.88283169e+01  3.00000000e+00  0.00000000e+00
 4.88020121e+01  4.00000000e+00  0.00000000e+00
 4.87206997e+01  5.00000000e+00  0.00000000e+00
 5.03052892e+01  1.00000000e+00  0.00000000e+00
 5.03570766e+01  2.00000000e+00  0.00000000e+00
 5.03733166e+01  3.00000000e+00  0.00000000e+00
 5.03570766e+01  4.00000000e+00  0.00000000e+00
 5.03052892e+01  5.00000000e+00  0.00000000e+00
 2.44444444e+01  1.50000000e+00  0.00000000e+00
 2.40000000e+01  1.50000000e+00  0.00000000e+00
 2.44444444e+01  3.00000000e+00  0.00000000e+00
 2.40000000e+01  3.00000000e+00  0.00000000e+00
 2.44444444e+01  4.50000000e+00  0.00000000e+00
 2.40000000e+01  4.50000000e+00  0.00000000e+00
 2.44444444e+01  6.00000000e+00  0.00000000e+00
 2.40000000e+01  6.00000000e+00  0.00000000e+00
 2.44444444e+01  7.50000000e+00  0.00000000e+00
 2.40000000e+01  7.50000000e+00  0.00000000e+00
 2.48888889e+01  1.50000000e+00  0.00000000e+00
 2.48888889e+01  3.00000000e+00  0.00000000e+00
 2.48888889e+01  4.50000000e+00  0.00000000e+00
 2.48888889e+01  6.00000000e+00  0.00000000e+00
 2.48888889e+01  7.50000000e+00  0.00000000e+00
 2.53333333e+01  1.50000000e+00  0.00000000e+00
 2.53333333e+01  3.00000000e+00  0.00000000e+00
 2.53333333e+01  4.50000000e+00  0.00000000e+00
 2.53333333e+01  6.00000000e+00  0.00000000e+00
 2.53333333e+01  7.50000000e+00  0.00000000e+00
 2.57777778e+01  1.50000000e+00  0.00000000e+00
 2.57777778e+01  3.00000000e+00  0.00000000e+00
 2.57777778e+01  4.50000000e+00  0.00000000e+00
 2.57777778e+01  6.00000000e+00  0.00000000e+00
 2.57777778e+01  7.50000000e+00  0.00000000e+00
 2.62222222e+01  1.50000000e+00  0.00000000e+00
 2.62222222e+01  3.00000000e+00  0.00000000e+00
 2.62222222e+01  4.50000000e+00  0.00000000e+00
 2.62222222e+01  6.00000000e+00  0.00000000e+00
 2.62222222e+01  7.50000000e+00  0.00000000e+00
 2.66666667e+01  1.50000000e+00  0.00000000e+00
 2.66666667e+01  3.00000000e+00  0.00000000e+00
 2.66666667e+01  4.50000000e+00  0.00000000e+00
 2.66666667e+01  6.00000000e+00  0.00000000e+00
 2.66666667e+01  7.50000000e+00  0.00000000e+00
 2.71111111e+01  1.50000000e+00  0.00000000e+00
 2.71111111e+01  3.00000000e+00  0.00000000e+00
 2.71111111e+01  4.50000000e+00  0.00000000e+00
 2.71111111e+01  6.00000000e+00  0.00000000e+00
 2.71111111e+01  7.50000000e+00  0.00000000e+00
 2.75555556e+01  1.50000000e+00  0.00000000e+00
 2.75555556e+01  3.00000000e+00  0.00000000e+00
 2.75555556e+01  4.50000000e+00  0.00000000e+00
 2.75555556e+01  6.00000000e+00  0.00000000e+00
 2.75555556e+01  7.50000000e+00  0.00000000e+00
 2.80000000e+01  1.50000000e+00  0.00000000e+00
 2.80000000e+01  3.00000000e+00  0.00000000e+00
 2.80000000e+01  4.50000000e+00  0.00000000e+00
 2.80000000e+01  6.00000000e+00  0.00000000e+00
 2.80000000e+01  7.50000000e+00  0.00000000e+00
 1.55357143e+01  1.02354984e+00  0.00000000e+00
 1.55357143e+01  2.04755380e+00  0.00000000e+00
 1.55357143e+01  3.07262975e+00  0.00000000e+00
 1.55357143e+01  4.09988642e+00  0.00000000e+00
 1.55357143e+01  5.13200934e+00  0.00000000e+00
 1.60714286e+01  1.04811685e+00  0.00000000e+00
[...]
POINT_DATA 518
VECTORS vectors float
 -7.484368e+00 2.768018e-19 -5.050589e-19
  -6.485984e+00 2.482066e-19 -1.070638e-18
  -5.488556e+00 2.026966e-19 -1.494756e-18
  -4.491908e+00 1.433542e-19 -1.835433e-18
  -3.495811e+00 7.421540e-20 -2.046081e-18
  -7.483523e+00 5.649459e-19 -5.323221e-19
  -6.485227e+00 5.066004e-19 -1.128454e-18
  -5.487937e+00 4.137310e-19 -1.575519e-18
  -4.491470e+00 2.926181e-19 -1.934657e-18
  -3.495584e+00 1.514954e-19 -2.156737e-18
  -7.482097e+00 8.698544e-19 -5.783097e-19
  -6.483948e+00 7.800700e-19 -1.225989e-18
  -5.486893e+00 6.371252e-19 -1.711796e-18
  -4.490731e+00 4.506575e-19 -2.102118e-18
  -3.495202e+00 2.333310e-19 -2.343519e-18
  -7.480009e+00 1.227057e-18 -6.455960e-19
  -6.482075e+00 1.100530e-18 -1.368734e-18
  -5.485363e+00 8.990026e-19 -1.911312e-18
  -4.489649e+00 6.359906e-19 -2.347378e-18
  -3.494642e+00 3.293277e-19 -2.617150e-18
  -7.477146e+00 1.648344e-18 -7.376896e-19
  -6.479507e+00 1.478669e-18 -1.564190e-18
  -5.483265e+00 1.208225e-18 -2.184681e-18
  -4.488165e+00 8.549798e-19 -2.683635e-18
  -3.493873e+00 4.428070e-19 -2.992479e-18
  -7.473356e+00 2.157775e-18 -8.592716e-19
  -6.476107e+00 1.936323e-18 -1.822426e-18
  -5.480487e+00 1.582917e-18 -2.546257e-18
  -4.486198e+00 1.120645e-18 -3.128877e-18
  -3.492854e+00 5.806180e-19 -3.489855e-18
  -7.468438e+00 2.782278e-18 -1.016340e-18
  -6.471693e+00 2.498200e-18 -2.156466e-18
  -5.476876e+00 2.043880e-18 -3.014874e-18
  -4.483641e+00 1.448169e-18 -3.707013e-18
  -3.491529e+00 7.506827e-19 -4.136585e-18
  -7.462128e+00 3.555636e-18 -1.216238e-18
  -6.466024e+00 3.195833e-18 -2.582541e-18
  -5.472235e+00 2.618318e-18 -3.614594e-18
  -4.480351e+00 1.857742e-18 -4.449305e-18
  -3.489823e+00 9.642592e-19 -4.968950e-18
  -7.454089e+00 4.518356e-18 -1.467370e-18
  -6.458793e+00 4.068195e-18 -3.119879e-18
  -5.466304e+00 3.340947e-18 -4.375275e-18
  -4.476137e+00 2.376412e-18 -5.396181e-18
  -3.487634e+00 1.234690e-18 -6.035209e-18
  -7.443895e+00 5.720619e-18 -1.778212e-18
  -6.449601e+00 5.166009e-18 -3.789310e-18
  -5.458740e+00 4.260738e-18 -5.332367e-18
  -4.470746e+00 3.043226e-18 -6.599435e-18
  -3.484827e+00 1.590104e-18 -7.400349e-18
  -7.431013e+00 7.213530e-18 -2.154932e-18
  -6.437940e+00 6.546303e-18 -4.609186e-18
  -5.449090e+00 5.436675e-18 -6.524307e-18
  -4.463828e+00 3.915480e-18 -8.124544e-18
  -3.481208e+00 2.043946e-18 -9.154351e-18
  -7.414796e+00 9.073582e-18 -2.597015e-18
  -6.423167e+00 8.300044e-18 -5.585777e-18
  -5.436745e+00 6.985749e-18 -7.982696e-18
  -4.454878e+00 5.097198e-18 -1.005036e-17
  -3.476486e+00 2.745672e-18 -1.142758e-17
  -7.394483e+00 1.128676e-17 -3.095414e-18
  -6.404488e+00 1.043156e-17 -6.695762e-18
  -5.420870e+00 8.950873e-18 -9.702080e-18
  -4.443128e+00 6.745079e-18 -1.245636e-17
  -3.470169e+00 3.531844e-18 -1.442279e-17
  -7.369224e+00 1.413689e-17 -3.623743e-18
  -6.380981e+00 1.325188e-17 -7.903043e-18
  -5.400413e+00 1.170851e-17 -1.154482e-17
  -4.427242e+00 9.376470e-18 -1.530578e-17
  -3.461267e+00 5.955758e-18 -1.850743e-17
  -7.338123e+00 1.670582e-17 -4.172908e-18
  -6.351653e+00 1.581336e-17 -9.078365e-18
  -5.374163e+00 1.427504e-17 -1.358119e-17
  -4.405669e+00 1.193751e-17 -1.763246e-17
  -3.446123e+00 8.714032e-18 -2.385003e-17
  -5.283614e+00 3.364250e-17 4.548052e-18
  -5.323384e+00 3.689584e-17 4.514326e-18
  -4.265586e+00 3.385179e-17 1.043270e-17
  -4.309131e+00 3.774660e-17 9.105118e-18
  -3.237379e+00 3.467103e-17 1.708955e-17
  -3.283843e+00 3.974948e-17 1.828491e-17
  -2.195420e+00 3.463998e-17 2.649706e-17
  -2.241920e+00 4.335504e-17 1.853070e-17
  -1.125028e+00 4.310027e-17 5.223328e-17
  -1.183479e+00 4.817370e-17 5.874641e-17
  -5.246359e+00 3.018690e-17 4.676803e-18
  -4.226179e+00 2.966323e-17 1.052039e-17
  -3.197377e+00 2.894640e-17 1.716780e-17
  -2.155659e+00 2.831697e-17 2.656225e-17
  -1.092593e+00 1.968957e-17 4.232811e-17
  -5.211316e+00 2.664401e-17 4.594876e-18
  -4.190701e+00 2.547798e-17 1.020608e-17
  -3.162804e+00 2.397440e-17 1.629652e-17
  -2.124440e+00 2.083701e-17 2.384811e-17
  -1.071331e+00 1.446375e-17 3.395398e-17
  -5.178608e+00 2.303049e-17 4.345126e-18
  -4.158910e+00 2.148064e-17 9.494672e-18
  -3.133282e+00 1.933317e-17 1.466873e-17
  -2.099715e+00 1.586139e-17 2.039444e-17
  -1.055948e+00 9.666971e-18 2.716763e-17
  -5.148481e+00 1.947331e-17 3.950216e-18
  -4.130679e+00 1.775014e-17 8.473862e-18
  -3.108162e+00 1.544115e-17 1.267906e-17
  -2.079742e+00 1.206528e-17 1.696008e-17
  -1.044135e+00 7.124542e-18 2.166371e-17
  -5.121200e+00 1.607648e-17 3.449310e-18
  -4.105872e+00 1.438825e-17 7.279500e-18
  -3.086813e+00 1.219358e-17 1.061130e-17
  -2.063355e+00 9.242625e-18 1.380802e-17
  -1.034732e+00 5.249111e-18 1.714839e-17
  -5.096983e+00 1.294137e-17 2.895593e-18
  -4.084338e+00 1.142987e-17 6.038942e-18
  -3.068726e+00 9.511444e-18 8.634813e-18
  -2.049799e+00 7.055295e-18 1.102375e-17
  -1.027104e+00 3.928612e-18 1.342269e-17
  -5.075956e+00 1.013963e-17 2.341838e-18
  -4.065927e+00 8.879288e-18 4.850068e-18
  -3.053518e+00 7.298916e-18 6.844260e-18
  -2.038582e+00 5.337670e-18 8.626012e-18
  -1.020876e+00 2.925745e-18 1.035107e-17
  -5.058155e+00 7.712328e-18 1.829590e-18
  -4.050484e+00 6.721848e-18 3.778566e-18
  -3.040899e+00 5.483148e-18 5.288411e-18
  -2.029376e+00 3.971803e-18 6.608832e-18
  -1.015813e+00 2.155121e-18 7.840824e-18
  -5.043518e+00 5.669799e-18 1.385415e-18
  -4.037848e+00 4.931829e-18 2.862309e-18
  -3.030642e+00 4.005030e-18 3.987746e-18
  -2.021946e+00 2.883346e-18 4.956103e-18
  -1.011755e+00 1.553072e-18 5.824291e-18
  -5.031907e+00 3.999830e-18 1.022204e-18
  -4.027844e+00 3.478108e-18 2.117827e-18
  -3.022552e+00 2.817844e-18 2.944837e-18
  -2.016112e+00 2.020766e-18 3.646750e-18
  -1.008586e+00 1.083036e-18 4.247873e-18
  -5.023129e+00 2.656025e-18 7.430664e-19
  -4.020288e+00 2.310273e-18 1.547225e-18
  -3.016455e+00 1.869598e-18 2.151421e-18
  -2.011727e+00 1.337590e-18 2.657293e-18
  -1.006211e+00 7.144386e-19 3.066069e-18
  -5.016975e+00 1.615884e-18 5.452429e-19
  -4.015004e+00 1.404919e-18 1.144867e-18
  -3.012197e+00 1.136298e-18 1.594837e-18
  -2.008667e+00 8.120917e-19 1.965201e-18
  -1.004554e+00 4.332000e-19 2.240894e-18
  -5.013293e+00 6.820829e-19 4.260518e-19
  -4.011864e+00 5.936809e-19 9.057802e-19
  -3.009674e+00 4.803247e-19 1.264124e-18
  -2.006850e+00 3.430550e-19 1.554087e-18
  -1.003563e+00 1.825456e-19 1.745652e-18
  -6.156845e+00 5.416399e-17 -6.075993e-18
  -6.204481e+00 5.305293e-17 -6.587087e-18
  -4.686677e+00 5.668151e-17 -1.348830e-17
  -4.736693e+00 5.542877e-17 -1.441322e-17
  -3.236614e+00 6.195100e-17 -1.974284e-17
  -3.290854e+00 6.118527e-17 -2.212043e-17
  -1.808240e+00 7.350030e-17 -2.910588e-17
  -1.873799e+00 6.880004e-17 -3.420054e-17
  -3.950483e-01 7.648091e-17 -2.229001e-17
  -4.624658e-01 9.337988e-17 -1.260768e-17
  -6.108363e+00 5.486427e-17 -5.401339e-18
  -4.635681e+00 5.815526e-17 -1.300812e-17
  -3.182027e+00 6.054716e-17 -1.622997e-17
  -1.739992e+00 8.041381e-17 -2.638222e-17
  -3.364926e-01 5.714428e-17 -3.270063e-17
  -6.059061e+00 5.579940e-17 -5.754156e-18
  -4.584336e+00 5.819690e-17 -9.348872e-18
  -3.125347e+00 6.359208e-17 -2.313664e-17
  -1.679382e+00 6.881319e-17 6.849698e-18
  -2.409296e-01 1.065970e-16 -1.198459e-16
  -6.009198e+00 5.614906e-17 -4.735774e-18
  -4.532283e+00 5.967241e-17 -1.038513e-17
  -3.069152e+00 5.992410e-17 -1.367797e-17
  -1.616939e+00 8.244765e-17 -1.955919e-17
  -1.540735e-01 4.700543e-17 6.993744e-18
  -5.958846e+00 5.668248e-17 -4.401008e-18
  -4.479823e+00 5.986172e-17 -9.123905e-18
  -3.013194e+00 6.031120e-17 -1.345128e-17
  -1.554160e+00 7.967379e-17 -1.140780e-17
  -7.947310e-02 4.260087e-17 -7.196465e-18
  -5.908110e+00 5.706774e-17 -3.972182e-18
  -4.427150e+00 5.998447e-17 -8.372258e-18
  -2.957308e+00 6.040605e-17 -1.173604e-17
  -1.492940e+00 7.667013e-17 -1.047356e-17
  -1.273952e-02 3.822586e-17 -1.801633e-18
  -5.857100e+00 5.733573e-17 -3.610277e-18
  -4.374358e+00 6.000637e-17 -7.559344e-18
  -2.901594e+00 6.036768e-17 -1.064708e-17
  -1.433732e+00 7.361350e-17 -9.226452e-18
  4.805236e-02 3.514788e-17 -2.799425e-18
  -5.805912e+00 5.750352e-17 -3.267321e-18
  -4.321531e+00 5.996738e-17 -6.837408e-18
  -2.846144e+00 6.024183e-17 -9.612367e-18
  -1.376285e+00 7.130430e-17 -9.463664e-18
  1.033331e-01 3.111874e-17 -3.059096e-18
  -5.754639e+00 5.755779e-17 -2.913516e-18
  -4.268714e+00 5.982336e-17 -6.277844e-18
  -2.791103e+00 5.986998e-17 -8.449749e-18
  -1.319620e+00 6.996030e-17 -1.083798e-17
  1.520818e-01 2.853083e-17 -4.999994e-18
  -7.295396e+00 1.912848e-17 -4.548009e-18
  -6.286541e+00 1.824168e-17 -9.980361e-18
  -5.286785e+00 1.671522e-17 -1.479950e-17
  -4.295110e+00 1.442952e-17 -1.987569e-17
  -3.309750e+00 1.155346e-17 -2.569339e-17
  -7.249625e+00 2.095146e-17 -4.943011e-18
  -6.217421e+00 2.006032e-17 -1.084720e-17
  -5.194373e+00 1.852419e-17 -1.618536e-17
  -4.178545e+00 1.619201e-17 -2.174415e-17
  -3.165546e+00 1.380083e-17 -2.763896e-17
  -7.200750e+00 2.307402e-17 -5.335422e-18
  -6.144314e+00 2.220137e-17 -1.173170e-17
  -5.097195e+00 2.067251e-17 -1.757699e-17
  -4.056563e+00 1.839592e-17 -2.357691e-17
  -3.016480e+00 1.559477e-17 -2.989033e-17
  -7.148716e+00 2.524617e-17 -5.723109e-18
  -6.067252e+00 2.440702e-17 -1.261478e-17
  -4.995442e+00 2.292003e-17 -1.896837e-17
  -3.929838e+00 2.057788e-17 -2.548399e-17
  -2.863885e+00 1.745888e-17 -3.244531e-17
  -7.093468e+00 2.751852e-17 -6.099625e-18
  -5.986236e+00 2.674079e-17 -1.348126e-17
  -4.889248e+00 2.531894e-17 -2.036515e-17
  -3.798792e+00 2.292185e-17 -2.749760e-17
  -2.708358e+00 1.946053e-17 -3.530266e-17
  -7.034946e+00 2.985999e-17 -6.456343e-18
  -5.901228e+00 2.917622e-17 -1.431490e-17
  -4.778641e+00 2.786765e-17 -2.175796e-17
  -3.663578e+00 2.546222e-17 -2.961475e-17
  -2.550094e+00 2.170701e-17 -3.847453e-17
  -6.973083e+00 3.225713e-17 -6.783487e-18
  -5.812142e+00 3.170857e-17 -1.509489e-17
  -4.663530e+00 3.058793e-17 -2.312087e-17
  -3.524117e+00 2.827508e-17 -3.181244e-17
  -2.389016e+00 2.429661e-17 -4.199029e-17
  -6.907802e+00 3.468742e-17 -7.070338e-18
  -5.718840e+00 3.432306e-17 -1.579493e-17
  -4.543703e+00 3.349243e-17 -2.441093e-17
  -3.380111e+00 3.143566e-17 -3.404598e-17
  -2.224820e+00 2.735649e-17 -4.589275e-17
  -6.839022e+00 3.712669e-17 -7.305914e-18
  -5.621139e+00 3.699932e-17 -1.638446e-17
  -4.418835e+00 3.658819e-17 -2.556876e-17
  -3.231049e+00 3.501980e-17 -3.623325e-17
  -2.056950e+00 3.112719e-17 -5.025018e-17
  -6.766653e+00 3.954577e-17 -7.479591e-18
  -5.518810e+00 3.971073e-17 -1.683261e-17
  -4.288499e+00 3.985048e-17 -2.651730e-17
  -3.076196e+00 3.914304e-17 -3.823906e-17
  -1.884513e+00 3.581165e-17 -5.511238e-17
  -6.690604e+00 4.191812e-17 -7.582818e-18
  -5.411588e+00 4.241555e-17 -1.710878e-17
  -4.152193e+00 4.327054e-17 -2.718470e-17
  -2.914587e+00 4.373698e-17 -3.978079e-17
  -1.706097e+00 4.247178e-17 -6.065721e-17
  -6.610779e+00 4.419603e-17 -7.607541e-18
  -5.299172e+00 4.509688e-17 -1.719238e-17
  -4.009365e+00 4.664927e-17 -2.750289e-17
  -2.745064e+00 4.912504e-17 -4.048324e-17
  -1.519380e+00 5.038991e-17 -6.657251e-17
  -6.527079e+00 4.640402e-17 -7.567849e-18
  -5.181222e+00 4.760808e-17 -1.700140e-17
  -3.859423e+00 5.045361e-17 -2.768217e-17
  -2.566492e+00 5.311157e-17 -3.910272e-17
  -1.320307e+00 6.830600e-17 -7.407254e-17
  -6.439386e+00 4.834743e-17 -7.505621e-18
  -5.057397e+00 5.008692e-17 -1.642006e-17
  -3.701593e+00 5.330651e-17 -2.796311e-17
  -2.378524e+00 5.945794e-17 -3.525810e-17
  -1.101212e+00 7.628181e-17 -7.759386e-17
  -5.730803e+00 5.750618e-17 -2.458798e-18
  -4.278863e+00 5.960915e-17 -5.534316e-18
  -2.831789e+00 5.948375e-17 -7.029766e-18
  -1.387744e+00 6.929331e-17 -1.247973e-17
  5.139073e-02 2.987695e-17 -7.111139e-18
  -5.705466e+00 5.733046e-17 -2.080845e-18
  -4.286418e+00 5.929940e-17 -4.772875e-18
  -2.869196e+00 5.884884e-17 -5.933206e-18
  -1.452311e+00 6.985904e-17 -1.275428e-17
  -4.022426e-02 3.245078e-17 -7.814562e-18
  -5.678966e+00 5.706746e-17 -1.726382e-18
  -4.291841e+00 5.897268e-17 -4.113610e-18
  -2.904033e+00 5.810757e-17 -4.798690e-18
  -1.513054e+00 7.107074e-17 -1.199135e-17
  -1.254203e-01 3.389833e-17 -7.803321e-18
  -5.651603e+00 5.669332e-17 -1.352849e-18
  -4.295490e+00 5.867231e-17 -3.580526e-18
  -2.936992e+00 5.714721e-17 -3.694611e-18
  -1.570679e+00 7.172517e-17 -1.000204e-17
  -2.042675e-01 3.766166e-17 -6.859276e-18
  -5.623656e+00 5.620722e-17 -1.014858e-18
  -4.297685e+00 5.834884e-17 -2.875206e-18
  -2.968330e+00 5.638100e-17 -3.501961e-18
  -1.627829e+00 7.052917e-17 -5.921183e-18
  -2.737361e-01 4.087235e-17 -3.670690e-18
  -5.595299e+00 5.578940e-17 -8.569168e-19
  -4.298966e+00 5.741188e-17 -1.717690e-18
  -2.997347e+00 5.763065e-17 -3.971097e-18
  -1.687978e+00 6.322520e-17 -4.361836e-18
  -3.375208e-01 5.310562e-17 1.565120e-17
  -5.566836e+00 5.525812e-17 -4.617228e-19
  -4.299218e+00 5.645232e-17 -1.035333e-18
  -3.026003e+00 5.861087e-17 -3.517418e-18
  -1.742492e+00 5.867243e-17 -1.041122e-18
  -4.360931e-01 5.328266e-17 -1.123841e-17
  -5.538418e+00 5.447407e-17 -1.811661e-20
  -4.298934e+00 5.576331e-17 -4.155985e-19
  -3.053134e+00 5.864293e-17 -1.941035e-18
  -1.797569e+00 5.674640e-17 -3.490723e-18
  -5.282756e-01 6.157944e-17 -1.070227e-17
  -5.510281e+00 5.352240e-17 4.119255e-19
  -4.298246e+00 5.498987e-17 5.302505e-19
  -3.079196e+00 5.841434e-17 -8.421766e-19
  -1.851270e+00 5.705923e-17 -3.300453e-18
  -6.143045e-01 6.585232e-17 -1.374644e-17
  -5.482642e+00 5.237081e-17 9.006141e-19
  -4.297382e+00 5.405358e-17 1.588112e-18
  -3.104385e+00 5.800642e-17 6.795362e-19
  -1.902686e+00 5.817623e-17 -2.324586e-18
  -6.949543e-01 7.067103e-17 -1.418526e-17
  -5.455747e+00 5.098501e-17 1.462805e-18
  -4.296555e+00 5.284821e-17 2.747112e-18
  -3.128993e+00 5.748874e-17 2.632287e-18
  -1.951632e+00 5.868887e-17 9.506868e-20
  -7.700011e-01 7.789587e-17 -1.355594e-17
  -5.429814e+00 4.937006e-17 1.891626e-18
  -4.296170e+00 5.119927e-17 4.483671e-18
  -3.152827e+00 5.688258e-17 3.841863e-18
  -2.000233e+00 5.794373e-17 6.036650e-18
  -8.352920e-01 8.587451e-17 -1.316921e-17
  -5.405133e+00 4.749728e-17 2.703359e-18
  -4.296364e+00 4.907045e-17 5.078367e-18
  -3.177156e+00 5.582566e-17 9.245317e-18
  -2.045297e+00 5.584546e-17 1.928629e-18
  -9.080633e-01 9.492517e-17 1.576309e-17
  -5.381919e+00 4.510308e-17 3.110107e-18
  -4.297586e+00 4.731823e-17 6.875153e-18
  -3.201817e+00 5.113791e-17 1.052012e-17
  -2.091741e+00 6.158178e-17 1.250303e-17
  -9.684846e-01 7.373708e-17 9.308791e-18
  -5.360451e+00 4.261188e-17 3.609627e-18
  -4.299932e+00 4.443678e-17 8.164618e-18
  -3.227927e+00 4.829657e-17 1.240434e-17
  -2.138754e+00 5.532186e-17 2.123723e-17
  -1.030653e+00 8.043285e-17 1.145798e-17
  -5.340872e+00 3.985278e-17 3.786045e-18
  -4.303846e+00 4.146503e-17 9.816650e-18
  -3.254723e+00 4.396651e-17 1.261628e-17
  -2.191323e+00 5.171929e-17 2.879046e-17
  -1.090280e+00 5.858771e-17 2.581805e-17
  -6.363726e+00 5.036771e-17 -7.391019e-18
  -4.954476e+00 5.136816e-17 -1.538847e-17
  -3.570514e+00 5.918856e-17 -2.829802e-17
  -2.218450e+00 5.358205e-17 -2.811673e-17
  -8.995997e-01 1.196823e-16 -8.406194e-17
  2.347692e-01 5.491501e-17 -5.633683e-17
  -6.285425e+00 5.188868e-17 -6.585841e-18
  -4.847388e+00 5.335611e-17 -1.627274e-17
  -3.434239e+00 6.145155e-17 -2.121729e-17
  -2.047041e+00 5.770489e-17 -4.363564e-17
  -6.994665e-01 1.265948e-16 -1.645085e-17
  8.246688e-01 -4.439329e-17 3.041955e-17
  -8.484184e+00 1.324031e-19 -1.573376e-19
  -8.483816e+00 2.865523e-19 -1.609895e-19
  -8.482942e+00 5.848396e-19 -1.696776e-19
  -8.481466e+00 9.004635e-19 -1.843313e-19
  -8.479304e+00 1.270183e-18 -2.057684e-19
  -8.476341e+00 1.706152e-18 -2.351005e-19
  -8.472418e+00 2.233169e-18 -2.738056e-19
  -8.467329e+00 2.878875e-18 -3.237654e-19
  -8.460801e+00 3.677719e-18 -3.872550e-19
  -8.452489e+00 4.670561e-18 -4.668185e-19
  -8.441956e+00 5.906970e-18 -5.648943e-19
  -8.428666e+00 7.435787e-18 -6.829719e-19
  -8.411970e+00 9.328761e-18 -8.207643e-19
  -8.391121e+00 1.156674e-17 -9.742399e-19
  -8.365289e+00 1.442622e-17 -1.139523e-18
  -8.333610e+00 1.699515e-17 -1.299202e-18
  -8.313902e+00 1.941602e-17 -1.423813e-18
  -8.292136e+00 2.123920e-17 -1.541259e-18
  -8.268196e+00 2.335422e-17 -1.661473e-18
  -8.241976e+00 2.551159e-17 -1.779318e-18
  -8.213384e+00 2.776049e-17 -1.892769e-18
  -8.182346e+00 3.006718e-17 -1.999297e-18
  -8.148806e+00 3.241634e-17 -2.095933e-18
  -8.112731e+00 3.478403e-17 -2.179512e-18
  -8.074116e+00 3.714505e-17 -2.246850e-18
  -8.032982e+00 3.947152e-17 -2.295058e-18
  -7.989381e+00 4.173474e-17 -2.321448e-18
  -7.943398e+00 4.390510e-17 -2.325598e-18
  -7.895144e+00 4.595846e-17 -2.300304e-18
  -7.844765e+00 4.783820e-17 -2.222215e-18
  -7.693962e+00 5.224634e-17 -1.965494e-18
  -7.647003e+00 5.331826e-17 -1.883215e-18
  -7.599173e+00 5.430706e-17 -1.894085e-18
  -7.550634e+00 5.499693e-17 -1.336409e-18
  -7.501447e+00 5.576700e-17 -1.507695e-18
  -7.451745e+00 5.626083e-17 -1.350217e-18
  -7.401639e+00 5.665158e-17 -1.249572e-18
  -7.351226e+00 5.693466e-17 -1.131896e-18
  -7.300602e+00 5.711307e-17 -1.021414e-18
  -7.249850e+00 5.720758e-17 -9.382837e-19
  -7.189382e+00 5.720312e-17 -8.213769e-19
  -7.128970e+00 5.709234e-17 -6.944855e-19
  -7.068738e+00 5.686414e-17 -5.761127e-19
  -7.008802e+00 5.653504e-17 -4.824139e-19
  -6.949269e+00 5.610913e-17 -3.896817e-19
  -6.890285e+00 5.547939e-17 -1.664150e-19
  -6.831948e+00 5.471687e-17 -7.742640e-20
  -6.774428e+00 5.387080e-17 3.015326e-20
  -6.717880e+00 5.285656e-17 1.742982e-19
  -6.662500e+00 5.164997e-17 3.256064e-19
  -6.608499e+00 5.022873e-17 4.619165e-19
  -6.556133e+00 4.854912e-17 7.016400e-19
  -6.505650e+00 4.659969e-17 7.360724e-19
  -6.457344e+00 4.449880e-17 9.739605e-19
  -6.411468e+00 4.206740e-17 1.091923e-18
  -6.368306e+00 3.936006e-17 1.369605e-18
  -6.328087e+00 3.661446e-17 1.209216e-18
  -6.294810e+00 3.390537e-17 1.380214e-18
  -6.260954e+00 3.110260e-17 1.378151e-18
  -6.227186e+00 2.789625e-17 1.327514e-18
  -6.194195e+00 2.449531e-17 1.245257e-18
  -6.162711e+00 2.097842e-17 1.131237e-18
  -6.133428e+00 1.749045e-17 9.945472e-19
  -6.106939e+00 1.416801e-17 8.440976e-19
  -6.083673e+00 1.113280e-17 6.915400e-19
  -6.063865e+00 8.469059e-18 5.474435e-19
  -6.047559e+00 6.215797e-18 4.197418e-19
  -6.034641e+00 4.374788e-18 3.130729e-19
  -6.024888e+00 2.898507e-18 2.298939e-19
  -6.018040e+00 1.766788e-18 1.695232e-19
  -6.013888e+00 7.456025e-19 1.339243e-19
  -6.012442e+00 2.326388e-19 1.223512e-19
  -5.012053e+00 2.079857e-19 3.854248e-19
  -4.010821e+00 1.794292e-19 8.267018e-19
  -3.008839e+00 1.449060e-19 1.154519e-18
  -2.006246e+00 1.038037e-19 1.418040e-18
  -1.003228e+00 5.576508e-20 1.576704e-18
  0.000000e+00 -7.864660e-22 1.630612e-18
  0.000000e+00 -1.477310e-21 1.807268e-18
  0.000000e+00 -1.777113e-21 2.324319e-18
  0.000000e+00 -2.275754e-21 3.185194e-18
  0.000000e+00 -3.250534e-21 4.418719e-18
  0.000000e+00 -4.345168e-21 6.067238e-18
  0.000000e+00 -6.379846e-21 8.183445e-18
  0.000000e+00 -4.209292e-21 1.083334e-17
  0.000000e+00 -1.360686e-20 1.410728e-17
  0.000000e+00 3.597015e-20 1.813971e-17
  0.000000e+00 -1.144418e-19 2.315435e-17
  0.000000e+00 5.837548e-19 2.952274e-17
  0.000000e+00 -1.888406e-18 3.802989e-17
  0.000000e+00 8.375822e-18 5.002605e-17
  0.000000e+00 -3.000784e-17 7.024602e-17
  0.000000e+00 1.243405e-16 1.081061e-16
  -1.662463e-02 1.742276e-16 6.061237e-18
  5.773108e-02 5.582904e-17 -5.855574e-18
  1.747143e-01 6.123981e-17 1.151656e-17
  3.052532e-01 -2.932811e-17 -1.833878e-18
  3.088479e-01 -1.616221e-17 3.582103e-19
  4.175884e-01 -1.966590e-17 1.799028e-18
  5.236149e-01 -1.618805e-17 2.332631e-18
  6.364592e-01 -1.549408e-17 2.281405e-18
  7.553025e-01 -1.471472e-17 1.838108e-18
  8.814262e-01 -1.191310e-17 7.635534e-19
  1.037789e+00 -1.758643e-17 -1.413484e-18
  1.515459e+00 -2.209949e-17 1.776039e-18
  1.340408e+00 -1.838633e-17 3.446648e-18