<VTKFile type="UnstructuredGrid" version="0.1" byte_order="LittleEndian">
  <UnstructuredGrid>
    <Piece NumberOfPoints="518" NumberOfCells="593">
      <PointData Scalars="watercontent" Vectors="richards flux">
        <DataArray type="Float64" Name="watercontent" NumberOfComponents="1" format="ascii">
  5.5000000E-001  5.5000000E-001  5.5000000E-001  5.5000000E-001  5.5000000E-001  5.5000000E-001  5.5000000E-001  5.5000000E-001  5.5000000E-001  5.5000000E-001  5.5000000E-001  5.5000000E-001  5.5000000E-001  5.5000000E-001  5.5000000E-001  5.5000000E-001  5.5000000E-001  5.5000000E-001  5.5000000E-001  5.5000000E-001  5.5000000E-001  5.5000000E-001  5.5000000E-001  5.5000000E-001  5.5000000E-001  5.5000000E-001  5.5000000E-001  5.5000000E-001  5.5000000E-001  5.5000000E-001  5.5000000E-001  5.5000000E-001  5.5000000E-001  5.5000000E-001  5.5000000E-001  5.5000000E-001  5.5000000E-001  5.5000000E-001  5.5000000E-001  5.5000000E-001  5.5000000E-001  5.5000000E-001  5.5000000E-001  5.5000000E-001  5.5000000E-001  5.5000000E-001  5.5000000E-001  5.5000000E-001  5.5000000E-001  5.5000000E-001  5.5000000E-001  5.5000000E-001  5.5000000E-001  5.5000000E-001  5.5000000E-001  5.5000000E-001  5.5000000E-001  5.5000000E-001  5.5000000E-001  5.5000000E-001  5.5000000E-001  5.5000000E-001  5.5000000E-001  5.5000000E-001  5.5000000E-001  5.5000000E-001  5.5000000E-001  5.5000000E-001  5.5000000E-001  5.5000000E-001  5.5000000E-001  5.5000000E-001  5.5000000E-001  5.5000000E-001  5.5000000E-001  5.5000000E-001  5.5000000E-001  5.5000000E-001  5.5000000E-001  5.5000000E-001  5.5000000E-001  5.5000000E-001  5.5000000E-001  5.5000000E-001  5.5000000E-001  5.5000000E-001  5.5000000E-001  5.5000000E-001  5.5000000E-001  5.5000000E-001  5.5000000E-001  5.5000000E-001  5.5000000E-001  5.5000000E-001  5.5000000E-001  5.5000000E-001  5.5000000E-001  5.5000000E-001  5.5000000E-001  5.5000000E-001  5.5000000E-001  5.5000000E-001  5.5000000E-001  5.5000000E-001  5.5000000E-001  5.5000000E-001  5.5000000E-001  5.5000000E-001  5.5000000E-001  5.5000000E-001  5.5000000E-001  5.5000000E-001  5.5000000E-001  5.5000000E-001  5.5000000E-001  5.5000000E-001  5.5000000E-001  5.5000000E-001  5.5000000E-001  5.5000000E-001  5.5000000E-001  5.5000000E-001  5.5000000E-001  5.5000000E-001  5.5000000E-001  5.5000000E-001  5.5000000E-001  5.5000000E-001  5.5000000E-001  5.5000000E-001  5.5000000E-001  5.5000000E-001  5.5000000E-001  5.5000000E-001  5.5000000E-001  5.5000000E-001  5.5000000E-001  5.5000000E-001  5.5000000E-001  5.5000000E-001  5.5000000E-001  5.5000000E-001  5.5000000E-001  5.5000000E-001  5.5000000E-001  5.5000000E-001  5.5000000E-001  5.5000000E-001  5.5000000E-001  5.5000000E-001  5.5000000E-001  5.5000000E-001  5.5000000E-001  5.5000000E-001  5.5000000E-001  5.5000000E-001  5.5000000E-001  5.5000000E-001  5.5000000E-001  5.5000000E-001  5.5000000E-001  5.5000000E-001  5.5000000E-001  5.5000000E-001  5.5000000E-001  5.5000000E-001  5.5000000E-001  5.5000000E-001  5.5000000E-001  5.5000000E-001  5.5000000E-001  5.5000000E-001  5.5000000E-001  5.5000000E-001  5.5000000E-001  5.5000000E-001  5.5000000E-001  5.5000000E-001  5.5000000E-001  5.5000000E-001  5.5000000E-001  5.5000000E-001  5.5000000E-001  5.5000000E-001  5.5000000E-001  5.5000000E-001  5.5000000E-001  5.5000000E-001  5.5000000E-001  3.9036415E-001  5.5000000E-001  5.5000000E-001  5.5000000E-001  5.5000000E-001  3.4866075E-001  5.5000000E-001  5.5000000E-001  5.5000000E-001  5.5000000E-001  3.3135028E-001  5.5000000E-001  5.5000000E-001  5.5000000E-001  5.5000000E-001  5.5000000E-001  5.5000000E-001  5.5000000E-001  5.5000000E-001  5.5000000E-001  5.5000000E-001  5.5000000E-001  5.5000000E-001  5.5000000E-001  5.5000000E-001  5.5000000E-001  5.5000000E-001  5.5000000E-001  5.5000000E-001  5.5000000E-001  5.5000000E-001  5.5000000E-001  5.5000000E-001  5.5000000E-001  5.5000000E-001  5.5000000E-001  5.5000000E-001  5.5000000E-001  5.5000000E-001  5.5000000E-001  5.5000000E-001  5.5000000E-001  5.5000000E-001  5.5000000E-001  5.5000000E-001  5.5000000E-001  5.5000000E-001  5.5000000E-001  5.5000000E-001  5.5000000E-001  5.5000000E-001  5.5000000E-001  5.5000000E-001  5.5000000E-001  5.5000000E-001  5.5000000E-001  5.5000000E-001  5.5000000E-001  5.5000000E-001  5.5000000E-001  5.5000000E-001  5.5000000E-001  5.5000000E-001  5.5000000E-001  5.5000000E-001  5.5000000E-001  5.5000000E-001  5.5000000E-001  5.5000000E-001  5.5000000E-001  5.5000000E-001  5.5000000E-001  5.5000000E-001  5.5000000E-001  5.5000000E-001  5.5000000E-001  5.5000000E-001  5.5000000E-001  5.5000000E-001  5.5000000E-001  5.5000000E-001  5.5000000E-001  5.5000000E-001  5.5000000E-001  5.5000000E-001  3.8632558E-001  5.5000000E-001  5.5000000E-001  5.5000000E-001  5.5000000E-001  5.5000000E-001  5.5000000E-001  5.5000000E-001  5.5000000E-001  5.5000000E-001  5.5000000E-001  5.5000000E-001  5.5000000E-001  5.5000000E-001  5.5000000E-001  5.5000000E-001  5.5000000E-001  5.5000000E-001  5.5000000E-001  5.5000000E-001  5.5000000E-001  5.5000000E-001  5.5000000E-001  5.5000000E-001  5.5000000E-001  5.5000000E-001  5.5000000E-001  5.5000000E-001  5.5000000E-001  5.5000000E-001  5.5000000E-001  5.5000000E-001  5.5000000E-001  5.5000000E-001  5.5000000E-001  5.5000000E-001  5.5000000E-001  5.5000000E-001  5.5000000E-001  5.5000000E-001  5.5000000E-001  5.5000000E-001  5.5000000E-001  5.5000000E-001  5.5000000E-001  5.5000000E-001  5.5000000E-001  5.5000000E-001  5.5000000E-001  5.5000000E-001  5.5000000E-001  5.5000000E-001  5.5000000E-001  5.5000000E-001  5.5000000E-001  5.5000000E-001  5.5000000E-001  5.5000000E-001  5.5000000E-001  5.5000000E-001  5.5000000E-001  5.5000000E-001  5.5000000E-001  5.5000000E-001  5.5000000E-001  5.5000000E-001  5.5000000E-001  5.5000000E-001  5.5000000E-001  5.5000000E-001  5.5000000E-001  5.5000000E-001  5.5000000E-001  5.5000000E-001  5.5000000E-001  5.5000000E-001  5.5000000E-001  5.5000000E-001  5.5000000E-001  5.5000000E-001  5.5000000E-001  3.1470708E-001  5.5000000E-001  5.5000000E-001  5.5000000E-001  5.5000000E-001  5.5000000E-001  2.8012361E-001  5.5000000E-001  5.5000000E-001  5.5000000E-001  5.5000000E-001  5.5000000E-001  5.5000000E-001  5.5000000E-001  5.5000000E-001  5.5000000E-001  5.5000000E-001  5.5000000E-001  5.5000000E-001  5.5000000E-001  5.5000000E-001  5.5000000E-001  5.5000000E-001  5.5000000E-001  5.5000000E-001  5.5000000E-001  5.5000000E-001  5.5000000E-001  5.5000000E-001  5.5000000E-001  5.5000000E-001  5.5000000E-001  5.5000000E-001  5.5000000E-001  5.5000000E-001  5.5000000E-001  5.5000000E-001  5.5000000E-001  5.5000000E-001  5.5000000E-001  5.5000000E-001  5.5000000E-001  5.5000000E-001  5.5000000E-001  5.5000000E-001  5.5000000E-001  5.5000000E-001  5.5000000E-001  5.5000000E-001  5.5000000E-001  5.5000000E-001  5.5000000E-001  5.5000000E-001  5.5000000E-001  5.5000000E-001  5.5000000E-001  5.5000000E-001  5.5000000E-001  5.5000000E-001  5.5000000E-001  5.5000000E-001  5.5000000E-001  5.5000000E-001  5.5000000E-001  5.5000000E-001  5.5000000E-001  5.5000000E-001  5.5000000E-001  5.5000000E-001  5.5000000E-001  5.5000000E-001  5.5000000E-001  5.5000000E-001  5.5000000E-001  5.5000000E-001  5.5000000E-001  5.5000000E-001  5.5000000E-001  5.5000000E-001  5.5000000E-001  5.5000000E-001  5.5000000E-001  5.5000000E-001  5.5000000E-001  5.5000000E-001  5.5000000E-001  5.5000000E-001  5.5000000E-001  5.5000000E-001  5.5000000E-001  5.5000000E-001  5.5000000E-001  5.5000000E-001  5.5000000E-001  5.5000000E-001  5.5000000E-001  5.5000000E-001  5.5000000E-001  5.5000000E-001  5.5000000E-001  5.5000000E-001  3.7949276E-001  3.2572350E-001  3.0594686E-001  3.0557739E-001  2.9664020E-001  2.9062547E-001  2.8586994E-001  2.8200363E-001  2.7874451E-001  2.7551854E-001  2.6883346E-001  2.7088590E-001  2.6973184E-001  2.6906517E-001  2.6824899E-001  2.6773803E-001  2.6898393E-001  2.7046071E-001  2.7278761E-001  2.7631619E-001  2.7730734E-001  2.8080234E-001  2.7469358E-001  2.7476611E-001  2.7532101E-001  5.5000000E-001  5.5000000E-001  5.5000000E-001  5.5000000E-001  5.5000000E-001  5.5000000E-001  5.5000000E-001  5.5000000E-001  5.5000000E-001  5.5000000E-001  5.5000000E-001  5.5000000E-001  5.5000000E-001  5.5000000E-001  5.5000000E-001  5.5000000E-001  5.5000000E-001  5.5000000E-001  5.5000000E-001  5.5000000E-001  5.5000000E-001  5.5000000E-001  5.5000000E-001  5.5000000E-001  5.5000000E-001  5.5000000E-001  5.5000000E-001  5.5000000E-001  5.5000000E-001  5.5000000E-001  5.5000000E-001  5.5000000E-001  5.5000000E-001  5.5000000E-001  5.5000000E-001  5.5000000E-001  5.5000000E-001 
        </DataArray>
        <DataArray type="Float64" Name="richards flux" NumberOfComponents="3" format="ascii">
  2.7680175E-019 -5.0505891E-019  0.0000000E+000  2.4820662E-019 -1.0706385E-018  0.0000000E+000  2.0269662E-019 -1.4947561E-018  0.0000000E+000  1.4335416E-019 -1.8354333E-018  0.0000000E+000  7.4215404E-020 -2.0460807E-018  0.0000000E+000  5.6494587E-019 -5.3232213E-019  0.0000000E+000  5.0660043E-019 -1.1284536E-018  0.0000000E+000  4.1373104E-019 -1.5755189E-018  0.0000000E+000  2.9261814E-019 -1.9346573E-018  0.0000000E+000  1.5149543E-019 -2.1567369E-018  0.0000000E+000  8.6985438E-019 -5.7830966E-019  0.0000000E+000  7.8007001E-019 -1.2259893E-018  0.0000000E+000  6.3712518E-019 -1.7117958E-018  0.0000000E+000  4.5065752E-019 -2.1021182E-018  0.0000000E+000  2.3333102E-019 -2.3435194E-018  0.0000000E+000  1.2270575E-018 -6.4559600E-019  0.0000000E+000  1.1005295E-018 -1.3687336E-018  0.0000000E+000  8.9900264E-019 -1.9113117E-018  0.0000000E+000  6.3599057E-019 -2.3473777E-018  0.0000000E+000  3.2932767E-019 -2.6171497E-018  0.0000000E+000  1.6483442E-018 -7.3768956E-019  0.0000000E+000  1.4786690E-018 -1.5641900E-018  0.0000000E+000  1.2082251E-018 -2.1846808E-018  0.0000000E+000  8.5497977E-019 -2.6836351E-018  0.0000000E+000  4.4280699E-019 -2.9924789E-018  0.0000000E+000  2.1577755E-018 -8.5927159E-019  0.0000000E+000  1.9363227E-018 -1.8224257E-018  0.0000000E+000  1.5829172E-018 -2.5462572E-018  0.0000000E+000  1.1206454E-018 -3.1288765E-018  0.0000000E+000  5.8061799E-019 -3.4898552E-018  0.0000000E+000  2.7822777E-018 -1.0163404E-018  0.0000000E+000  2.4982002E-018 -2.1564663E-018  0.0000000E+000  2.0438803E-018 -3.0148745E-018  0.0000000E+000  1.4481694E-018 -3.7070134E-018  0.0000000E+000  7.5068266E-019 -4.1365852E-018  0.0000000E+000  3.5556355E-018 -1.2162378E-018  0.0000000E+000  3.1958332E-018 -2.5825412E-018  0.0000000E+000  2.6183176E-018 -3.6145938E-018  0.0000000E+000  1.8577418E-018 -4.4493054E-018  0.0000000E+000  9.6425920E-019 -4.9689496E-018  0.0000000E+000  4.5183557E-018 -1.4673701E-018  0.0000000E+000  4.0681951E-018 -3.1198787E-018  0.0000000E+000  3.3409470E-018 -4.3752755E-018  0.0000000E+000  2.3764116E-018 -5.3961811E-018  0.0000000E+000  1.2346902E-018 -6.0352087E-018  0.0000000E+000  5.7206190E-018 -1.7782118E-018  0.0000000E+000  5.1660088E-018 -3.7893105E-018  0.0000000E+000  4.2607381E-018 -5.3323671E-018  0.0000000E+000  3.0432262E-018 -6.5994353E-018  0.0000000E+000  1.5901041E-018 -7.4003491E-018  0.0000000E+000  7.2135297E-018 -2.1549323E-018  0.0000000E+000  6.5463035E-018 -4.6091860E-018  0.0000000E+000  5.4366751E-018 -6.5243068E-018  0.0000000E+000  3.9154802E-018 -8.1245436E-018  0.0000000E+000  2.0439464E-018 -9.1543508E-018  0.0000000E+000  9.0735820E-018 -2.5970150E-018  0.0000000E+000  8.3000436E-018 -5.5857775E-018  0.0000000E+000  6.9857494E-018 -7.9826965E-018  0.0000000E+000  5.0971984E-018 -1.0050357E-017  0.0000000E+000  2.7456723E-018 -1.1427580E-017  0.0000000E+000  1.1286756E-017 -3.0954136E-018  0.0000000E+000  1.0431557E-017 -6.6957619E-018  0.0000000E+000  8.9508731E-018 -9.7020798E-018  0.0000000E+000  6.7450795E-018 -1.2456360E-017  0.0000000E+000  3.5318437E-018 -1.4422793E-017  0.0000000E+000  1.4136894E-017 -3.6237433E-018  0.0000000E+000  1.3251883E-017 -7.9030434E-018  0.0000000E+000  1.1708512E-017 -1.1544818E-017  0.0000000E+000  9.3764702E-018 -1.5305779E-017  0.0000000E+000  5.9557582E-018 -1.8507435E-017  0.0000000E+000  1.6705819E-017 -4.1729079E-018  0.0000000E+000  1.5813360E-017 -9.0783653E-018  0.0000000E+000  1.4275042E-017 -1.3581192E-017  0.0000000E+000  1.1937509E-017 -1.7632465E-017  0.0000000E+000  8.7140320E-018 -2.3850032E-017  0.0000000E+000  3.3642498E-017  4.5480519E-018  0.0000000E+000  3.6895842E-017  4.5143257E-018  0.0000000E+000  3.3851790E-017  1.0432700E-017  0.0000000E+000  3.7746604E-017  9.1051181E-018  0.0000000E+000  3.4671035E-017  1.7089546E-017  0.0000000E+000  3.9749479E-017  1.8284914E-017  0.0000000E+000  3.4639980E-017  2.6497056E-017  0.0000000E+000  4.3355035E-017  1.8530698E-017  0.0000000E+000  4.3100270E-017  5.2233278E-017  0.0000000E+000  4.8173704E-017  5.8746409E-017  0.0000000E+000  3.0186903E-017  4.6768030E-018  0.0000000E+000  2.9663235E-017  1.0520392E-017  0.0000000E+000  2.8946401E-017  1.7167797E-017  0.0000000E+000  2.8316973E-017  2.6562251E-017  0.0000000E+000  1.9689569E-017  4.2328114E-017  0.0000000E+000  2.6644006E-017  4.5948756E-018  0.0000000E+000  2.5477980E-017  1.0206082E-017  0.0000000E+000  2.3974402E-017  1.6296522E-017  0.0000000E+000  2.0837013E-017  2.3848109E-017  0.0000000E+000  1.4463755E-017  3.3953978E-017  0.0000000E+000  2.3030488E-017  4.3451258E-018  0.0000000E+000  2.1480639E-017  9.4946718E-018  0.0000000E+000  1.9333171E-017  1.4668731E-017  0.0000000E+000  1.5861386E-017  2.0394444E-017  0.0000000E+000  9.6669709E-018  2.7167630E-017  0.0000000E+000  1.9473305E-017  3.9502164E-018  0.0000000E+000  1.7750145E-017  8.4738622E-018  0.0000000E+000  1.5441148E-017  1.2679060E-017  0.0000000E+000  1.2065275E-017  1.6960076E-017  0.0000000E+000  7.1245423E-018  2.1663710E-017  0.0000000E+000  1.6076476E-017  3.4493098E-018  0.0000000E+000  1.4388252E-017  7.2795003E-018  0.0000000E+000  1.2193580E-017  1.0611297E-017  0.0000000E+000  9.2426253E-018  1.3808019E-017  0.0000000E+000  5.2491114E-018  1.7148394E-017  0.0000000E+000  1.2941368E-017  2.8955927E-018  0.0000000E+000  1.1429871E-017  6.0389425E-018  0.0000000E+000  9.5114436E-018  8.6348128E-018  0.0000000E+000  7.0552950E-018  1.1023750E-017  0.0000000E+000  3.9286118E-018  1.3422690E-017  0.0000000E+000  1.0139632E-017  2.3418382E-018  0.0000000E+000  8.8792879E-018  4.8500682E-018  0.0000000E+000  7.2989163E-018  6.8442605E-018  0.0000000E+000  5.3376695E-018  8.6260119E-018  0.0000000E+000  2.9257453E-018  1.0351067E-017  0.0000000E+000  7.7123281E-018  1.8295904E-018  0.0000000E+000  6.7218481E-018  3.7785659E-018  0.0000000E+000  5.4831477E-018  5.2884107E-018  0.0000000E+000  3.9718026E-018  6.6088320E-018  0.0000000E+000  2.1551212E-018  7.8408240E-018  0.0000000E+000  5.6697993E-018  1.3854154E-018  0.0000000E+000  4.9318289E-018  2.8623092E-018  0.0000000E+000  4.0050298E-018  3.9877455E-018  0.0000000E+000  2.8833458E-018  4.9561033E-018  0.0000000E+000  1.5530716E-018  5.8242909E-018  0.0000000E+000  3.9998303E-018  1.0222041E-018  0.0000000E+000  3.4781081E-018  2.1178272E-018  0.0000000E+000  2.8178439E-018  2.9448374E-018  0.0000000E+000  2.0207660E-018  3.6467498E-018  0.0000000E+000  1.0830362E-018  4.2478727E-018  0.0000000E+000  2.6560246E-018  7.4306640E-019  0.0000000E+000  2.3102726E-018  1.5472253E-018  0.0000000E+000  1.8695981E-018  2.1514210E-018  0.0000000E+000  1.3375899E-018  2.6572934E-018  0.0000000E+000  7.1443860E-019  3.0660686E-018  0.0000000E+000  1.6158836E-018  5.4524286E-019  0.0000000E+000  1.4049186E-018  1.1448667E-018  0.0000000E+000  1.1362985E-018  1.5948373E-018  0.0000000E+000  8.1209167E-019  1.9652005E-018  0.0000000E+000  4.3320004E-019  2.2408936E-018  0.0000000E+000  6.8208288E-019  4.2605175E-019  0.0000000E+000  5.9368088E-019  9.0578015E-019  0.0000000E+000  4.8032473E-019  1.2641238E-018  0.0000000E+000  3.4305496E-019  1.5540868E-018  0.0000000E+000  1.8254564E-019  1.7456522E-018  0.0000000E+000  5.4163989E-017 -6.0759926E-018  0.0000000E+000  5.3052929E-017 -6.5870875E-018  0.0000000E+000  5.6681515E-017 -1.3488304E-017  0.0000000E+000  5.5428772E-017 -1.4413222E-017  0.0000000E+000  6.1951000E-017 -1.9742835E-017  0.0000000E+000  6.1185274E-017 -2.2120430E-017  0.0000000E+000  7.3500303E-017 -2.9105879E-017  0.0000000E+000  6.8800043E-017 -3.4200541E-017  0.0000000E+000  7.6480909E-017 -2.2290006E-017  0.0000000E+000  9.3379879E-017 -1.2607675E-017  0.0000000E+000  5.4864273E-017 -5.4013387E-018  0.0000000E+000  5.8155264E-017 -1.3008125E-017  0.0000000E+000  6.0547158E-017 -1.6229974E-017  0.0000000E+000  8.0413807E-017 -2.6382217E-017  0.0000000E+000  5.7144285E-017 -3.2700634E-017  0.0000000E+000  5.5799404E-017 -5.7541563E-018  0.0000000E+000  5.8196905E-017 -9.3488716E-018  0.0000000E+000  6.3592080E-017 -2.3136643E-017  0.0000000E+000  6.8813187E-017  6.8496980E-018  0.0000000E+000  1.0659698E-016 -1.1984593E-016  0.0000000E+000  5.6149061E-017 -4.7357744E-018  0.0000000E+000  5.9672410E-017 -1.0385130E-017  0.0000000E+000  5.9924099E-017 -1.3677969E-017  0.0000000E+000  8.2447646E-017 -1.9559190E-017  0.0000000E+000  4.7005428E-017  6.9937442E-018  0.0000000E+000  5.6682482E-017 -4.4010075E-018  0.0000000E+000  5.9861718E-017 -9.1239050E-018  0.0000000E+000  6.0311198E-017 -1.3451281E-017  0.0000000E+000  7.9673795E-017 -1.1407797E-017  0.0000000E+000  4.2600871E-017 -7.1964645E-018  0.0000000E+000  5.7067741E-017 -3.9721820E-018  0.0000000E+000  5.9984470E-017 -8.3722579E-018  0.0000000E+000  6.0406050E-017 -1.1736036E-017  0.0000000E+000  7.6670133E-017 -1.0473558E-017  0.0000000E+000  3.8225864E-017 -1.8016327E-018  0.0000000E+000  5.7335735E-017 -3.6102769E-018  0.0000000E+000  6.0006366E-017 -7.5593439E-018  0.0000000E+000  6.0367682E-017 -1.0647085E-017  0.0000000E+000  7.3613500E-017 -9.2264523E-018  0.0000000E+000  3.5147876E-017 -2.7994249E-018  0.0000000E+000  5.7503522E-017 -3.2673213E-018  0.0000000E+000  5.9967385E-017 -6.8374078E-018  0.0000000E+000  6.0241833E-017 -9.6123670E-018  0.0000000E+000  7.1304299E-017 -9.4636637E-018  0.0000000E+000  3.1118740E-017 -3.0590964E-018  0.0000000E+000  5.7557789E-017 -2.9135160E-018  0.0000000E+000  5.9823356E-017 -6.2778442E-018  0.0000000E+000  5.9869975E-017 -8.4497487E-018  0.0000000E+000  6.9960298E-017 -1.0837982E-017  0.0000000E+000  2.8530830E-017 -4.9999942E-018  0.0000000E+000  1.9128477E-017 -4.5480087E-018  0.0000000E+000  1.8241683E-017 -9.9803613E-018  0.0000000E+000  1.6715217E-017 -1.4799498E-017  0.0000000E+000  1.4429523E-017 -1.9875689E-017  0.0000000E+000  1.1553465E-017 -2.5693388E-017  0.0000000E+000  2.0951461E-017 -4.9430115E-018  0.0000000E+000  2.0060323E-017 -1.0847199E-017  0.0000000E+000  1.8524192E-017 -1.6185365E-017  0.0000000E+000  1.6192013E-017 -2.1744148E-017  0.0000000E+000  1.3800831E-017 -2.7638961E-017  0.0000000E+000  2.3074020E-017 -5.3354219E-018  0.0000000E+000  2.2201367E-017 -1.1731704E-017  0.0000000E+000  2.0672507E-017 -1.7576992E-017  0.0000000E+000  1.8395920E-017 -2.3576910E-017  0.0000000E+000  1.5594771E-017 -2.9890334E-017  0.0000000E+000  2.5246169E-017 -5.7231094E-018  0.0000000E+000  2.4407019E-017 -1.2614783E-017  0.0000000E+000  2.2920031E-017 -1.8968372E-017  0.0000000E+000  2.0577884E-017 -2.5483991E-017  0.0000000E+000  1.7458880E-017 -3.2445310E-017  0.0000000E+000  2.7518520E-017 -6.0996247E-018  0.0000000E+000  2.6740790E-017 -1.3481261E-017  0.0000000E+000  2.5318941E-017 -2.0365150E-017  0.0000000E+000  2.2921855E-017 -2.7497598E-017  0.0000000E+000  1.9460533E-017 -3.5302660E-017  0.0000000E+000  2.9859986E-017 -6.4563429E-018  0.0000000E+000  2.9176220E-017 -1.4314898E-017  0.0000000E+000  2.7867654E-017 -2.1757965E-017  0.0000000E+000  2.5462218E-017 -2.9614752E-017  0.0000000E+000  2.1707005E-017 -3.8474531E-017  0.0000000E+000  3.2257129E-017 -6.7834867E-018  0.0000000E+000  3.1708568E-017 -1.5094891E-017  0.0000000E+000  3.0587935E-017 -2.3120868E-017  0.0000000E+000  2.8275083E-017 -3.1812436E-017  0.0000000E+000  2.4296610E-017 -4.1990288E-017  0.0000000E+000  3.4687422E-017 -7.0703377E-018  0.0000000E+000  3.4323064E-017 -1.5794935E-017  0.0000000E+000  3.3492434E-017 -2.4410928E-017  0.0000000E+000  3.1435656E-017 -3.4045978E-017  0.0000000E+000  2.7356485E-017 -4.5892747E-017  0.0000000E+000  3.7126688E-017 -7.3059143E-018  0.0000000E+000  3.6999321E-017 -1.6384462E-017  0.0000000E+000  3.6588195E-017 -2.5568765E-017  0.0000000E+000  3.5019804E-017 -3.6233246E-017  0.0000000E+000  3.1127192E-017 -5.0250181E-017  0.0000000E+000  3.9545774E-017 -7.4795910E-018  0.0000000E+000  3.9710729E-017 -1.6832609E-017  0.0000000E+000  3.9850480E-017 -2.6517303E-017  0.0000000E+000  3.9143040E-017 -3.8239064E-017  0.0000000E+000  3.5811654E-017 -5.5112382E-017  0.0000000E+000  4.1918124E-017 -7.5828177E-018  0.0000000E+000  4.2415553E-017 -1.7108785E-017  0.0000000E+000  4.3270544E-017 -2.7184702E-017  0.0000000E+000  4.3736983E-017 -3.9780795E-017  0.0000000E+000  4.2471776E-017 -6.0657211E-017  0.0000000E+000  4.4196033E-017 -7.6075411E-018  0.0000000E+000  4.5096876E-017 -1.7192383E-017  0.0000000E+000  4.6649271E-017 -2.7502894E-017  0.0000000E+000  4.9125040E-017 -4.0483244E-017  0.0000000E+000  5.0389913E-017 -6.6572514E-017  0.0000000E+000  4.6404024E-017 -7.5678486E-018  0.0000000E+000  4.7608084E-017 -1.7001403E-017  0.0000000E+000  5.0453607E-017 -2.7682166E-017  0.0000000E+000  5.3111569E-017 -3.9102715E-017  0.0000000E+000  6.8306002E-017 -7.4072535E-017  0.0000000E+000  4.8347434E-017 -7.5056215E-018  0.0000000E+000  5.0086924E-017 -1.6420055E-017  0.0000000E+000  5.3306505E-017 -2.7963107E-017  0.0000000E+000  5.9457939E-017 -3.5258099E-017  0.0000000E+000  7.6281811E-017 -7.7593857E-017  0.0000000E+000  5.7506178E-017 -2.4587976E-018  0.0000000E+000  5.9609151E-017 -5.5343157E-018  0.0000000E+000  5.9483753E-017 -7.0297659E-018  0.0000000E+000  6.9293308E-017 -1.2479731E-017  0.0000000E+000  2.9876954E-017 -7.1111388E-018  0.0000000E+000  5.7330458E-017 -2.0808451E-018  0.0000000E+000  5.9299396E-017 -4.7728755E-018  0.0000000E+000  5.8848843E-017 -5.9332056E-018  0.0000000E+000  6.9859045E-017 -1.2754276E-017  0.0000000E+000  3.2450777E-017 -7.8145620E-018  0.0000000E+000  5.7067460E-017 -1.7263822E-018  0.0000000E+000  5.8972683E-017 -4.1136103E-018  0.0000000E+000  5.8107569E-017 -4.7986901E-018  0.0000000E+000  7.1070740E-017 -1.1991352E-017  0.0000000E+000  3.3898327E-017 -7.8033209E-018  0.0000000E+000  5.6693323E-017 -1.3528491E-018  0.0000000E+000  5.8672314E-017 -3.5805261E-018  0.0000000E+000  5.7147209E-017 -3.6946113E-018  0.0000000E+000  7.1725167E-017 -1.0002038E-017  0.0000000E+000  3.7661664E-017 -6.8592762E-018  0.0000000E+000  5.6207221E-017 -1.0148583E-018  0.0000000E+000  5.8348838E-017 -2.8752059E-018  0.0000000E+000  5.6381002E-017 -3.5019608E-018  0.0000000E+000  7.0529166E-017 -5.9211826E-018  0.0000000E+000  4.0872354E-017 -3.6706895E-018  0.0000000E+000  5.5789400E-017 -8.5691679E-019  0.0000000E+000  5.7411883E-017 -1.7176905E-018  0.0000000E+000  5.7630645E-017 -3.9710970E-018  0.0000000E+000  6.3225204E-017 -4.3618356E-018  0.0000000E+000  5.3105617E-017  1.5651204E-017  0.0000000E+000  5.5258119E-017 -4.6172282E-019  0.0000000E+000  5.6452321E-017 -1.0353328E-018  0.0000000E+000  5.8610874E-017 -3.5174175E-018  0.0000000E+000  5.8672433E-017 -1.0411215E-018  0.0000000E+000  5.3282657E-017 -1.1238409E-017  0.0000000E+000  5.4474069E-017 -1.8116611E-020  0.0000000E+000  5.5763313E-017 -4.1559847E-019  0.0000000E+000  5.8642929E-017 -1.9410351E-018  0.0000000E+000  5.6746402E-017 -3.4907235E-018  0.0000000E+000  6.1579438E-017 -1.0702270E-017  0.0000000E+000  5.3522402E-017  4.1192549E-019  0.0000000E+000  5.4989866E-017  5.3025052E-019  0.0000000E+000  5.8414342E-017 -8.4217656E-019  0.0000000E+000  5.7059234E-017 -3.3004526E-018  0.0000000E+000  6.5852318E-017 -1.3746436E-017  0.0000000E+000  5.2370810E-017  9.0061410E-019  0.0000000E+000  5.4053576E-017  1.5881116E-018  0.0000000E+000  5.8006424E-017  6.7953616E-019  0.0000000E+000  5.8176230E-017 -2.3245863E-018  0.0000000E+000  7.0671027E-017 -1.4185258E-017  0.0000000E+000  5.0985006E-017  1.4628054E-018  0.0000000E+000  5.2848212E-017  2.7471120E-018  0.0000000E+000  5.7488742E-017  2.6322874E-018  0.0000000E+000  5.8688869E-017  9.5068675E-020  0.0000000E+000  7.7895869E-017 -1.3555942E-017  0.0000000E+000  4.9370064E-017  1.8916258E-018  0.0000000E+000  5.1199267E-017  4.4836714E-018  0.0000000E+000  5.6882583E-017  3.8418633E-018  0.0000000E+000  5.7943726E-017  6.0366504E-018  0.0000000E+000  8.5874514E-017 -1.3169209E-017  0.0000000E+000  4.7497280E-017  2.7033592E-018  0.0000000E+000  4.9070450E-017  5.0783673E-018  0.0000000E+000  5.5825659E-017  9.2453169E-018  0.0000000E+000  5.5845462E-017  1.9286287E-018  0.0000000E+000  9.4925172E-017  1.5763087E-017  0.0000000E+000  4.5103076E-017  3.1101072E-018  0.0000000E+000  4.7318229E-017  6.8751529E-018  0.0000000E+000  5.1137911E-017  1.0520124E-017  0.0000000E+000  6.1581782E-017  1.2503026E-017  0.0000000E+000  7.3737077E-017  9.3087908E-018  0.0000000E+000  4.2611883E-017  3.6096268E-018  0.0000000E+000  4.4436776E-017  8.1646184E-018  0.0000000E+000  4.8296568E-017  1.2404338E-017  0.0000000E+000  5.5321863E-017  2.1237233E-017  0.0000000E+000  8.0432853E-017  1.1457984E-017  0.0000000E+000  3.9852775E-017  3.7860454E-018  0.0000000E+000  4.1465030E-017  9.8166501E-018  0.0000000E+000  4.3966512E-017  1.2616275E-017  0.0000000E+000  5.1719290E-017  2.8790463E-017  0.0000000E+000  5.8587705E-017  2.5818048E-017  0.0000000E+000  5.0367710E-017 -7.3910194E-018  0.0000000E+000  5.1368157E-017 -1.5388465E-017  0.0000000E+000  5.9188560E-017 -2.8298016E-017  0.0000000E+000  5.3582047E-017 -2.8116733E-017  0.0000000E+000  1.1968230E-016 -8.4061941E-017  0.0000000E+000  5.4915010E-017 -5.6336831E-017  0.0000000E+000  5.1888676E-017 -6.5858406E-018  0.0000000E+000  5.3356111E-017 -1.6272740E-017  0.0000000E+000  6.1451545E-017 -2.1217287E-017  0.0000000E+000  5.7704888E-017 -4.3635635E-017  0.0000000E+000  1.2659476E-016 -1.6450850E-017  0.0000000E+000 -4.4393285E-017  3.0419551E-017  0.0000000E+000  1.3240311E-019 -1.5733763E-019  0.0000000E+000  2.8655233E-019 -1.6098946E-019  0.0000000E+000  5.8483957E-019 -1.6967757E-019  0.0000000E+000  9.0046348E-019 -1.8433134E-019  0.0000000E+000  1.2701828E-018 -2.0576838E-019  0.0000000E+000  1.7061519E-018 -2.3510047E-019  0.0000000E+000  2.2331695E-018 -2.7380562E-019  0.0000000E+000  2.8788746E-018 -3.2376537E-019  0.0000000E+000  3.6777190E-018 -3.8725504E-019  0.0000000E+000  4.6705605E-018 -4.6681851E-019  0.0000000E+000  5.9069698E-018 -5.6489427E-019  0.0000000E+000  7.4357868E-018 -6.8297190E-019  0.0000000E+000  9.3287611E-018 -8.2076427E-019  0.0000000E+000  1.1566743E-017 -9.7423985E-019  0.0000000E+000  1.4426223E-017 -1.1395232E-018  0.0000000E+000  1.6995151E-017 -1.2992020E-018  0.0000000E+000  1.9416016E-017 -1.4238132E-018  0.0000000E+000  2.1239197E-017 -1.5412586E-018  0.0000000E+000  2.3354223E-017 -1.6614728E-018  0.0000000E+000  2.5511588E-017 -1.7793183E-018  0.0000000E+000  2.7760487E-017 -1.8927689E-018  0.0000000E+000  3.0067179E-017 -1.9992969E-018  0.0000000E+000  3.2416344E-017 -2.0959327E-018  0.0000000E+000  3.4784029E-017 -2.1795124E-018  0.0000000E+000  3.7145048E-017 -2.2468496E-018  0.0000000E+000  3.9471525E-017 -2.2950578E-018  0.0000000E+000  4.1734741E-017 -2.3214482E-018  0.0000000E+000  4.3905098E-017 -2.3255980E-018  0.0000000E+000  4.5958463E-017 -2.3003040E-018  0.0000000E+000  4.7838199E-017 -2.2222149E-018  0.0000000E+000  5.2246341E-017 -1.9654944E-018  0.0000000E+000  5.3318264E-017 -1.8832146E-018  0.0000000E+000  5.4307056E-017 -1.8940854E-018  0.0000000E+000  5.4996929E-017 -1.3364087E-018  0.0000000E+000  5.5766995E-017 -1.5076953E-018  0.0000000E+000  5.6260827E-017 -1.3502166E-018  0.0000000E+000  5.6651580E-017 -1.2495717E-018  0.0000000E+000  5.6934657E-017 -1.1318962E-018  0.0000000E+000  5.7113073E-017 -1.0214144E-018  0.0000000E+000  5.7207580E-017 -9.3828374E-019  0.0000000E+000  5.7203120E-017 -8.2137685E-019  0.0000000E+000  5.7092335E-017 -6.9448547E-019  0.0000000E+000  5.6864143E-017 -5.7611274E-019  0.0000000E+000  5.6535041E-017 -4.8241390E-019  0.0000000E+000  5.6109125E-017 -3.8968175E-019  0.0000000E+000  5.5479388E-017 -1.6641500E-019  0.0000000E+000  5.4716870E-017 -7.7426396E-020  0.0000000E+000  5.3870805E-017  3.0153263E-020  0.0000000E+000  5.2856556E-017  1.7429819E-019  0.0000000E+000  5.1649973E-017  3.2560636E-019  0.0000000E+000  5.0228734E-017  4.6191654E-019  0.0000000E+000  4.8549123E-017  7.0164000E-019  0.0000000E+000  4.6599687E-017  7.3607239E-019  0.0000000E+000  4.4498798E-017  9.7396051E-019  0.0000000E+000  4.2067402E-017  1.0919225E-018  0.0000000E+000  3.9360060E-017  1.3696053E-018  0.0000000E+000  3.6614463E-017  1.2092162E-018  0.0000000E+000  3.3905373E-017  1.3802137E-018  0.0000000E+000  3.1102604E-017  1.3781508E-018  0.0000000E+000  2.7896250E-017  1.3275142E-018  0.0000000E+000  2.4495312E-017  1.2452572E-018  0.0000000E+000  2.0978420E-017  1.1312368E-018  0.0000000E+000  1.7490448E-017  9.9454724E-019  0.0000000E+000  1.4168007E-017  8.4409763E-019  0.0000000E+000  1.1132799E-017  6.9154001E-019  0.0000000E+000  8.4690592E-018  5.4744345E-019  0.0000000E+000  6.2157970E-018  4.1974183E-019  0.0000000E+000  4.3747879E-018  3.1307289E-019  0.0000000E+000  2.8985073E-018  2.2989389E-019  0.0000000E+000  1.7667883E-018  1.6952316E-019  0.0000000E+000  7.4560254E-019  1.3392435E-019  0.0000000E+000  2.3263881E-019  1.2235117E-019  0.0000000E+000  2.0798571E-019  3.8542480E-019  0.0000000E+000  1.7942916E-019  8.2670177E-019  0.0000000E+000  1.4490603E-019  1.1545189E-018  0.0000000E+000  1.0380371E-019  1.4180399E-018  0.0000000E+000  5.5765077E-020  1.5767044E-018  0.0000000E+000 -7.8646599E-022  1.6306123E-018  0.0000000E+000 -1.4773097E-021  1.8072682E-018  0.0000000E+000 -1.7771128E-021  2.3243186E-018  0.0000000E+000 -2.2757538E-021  3.1851942E-018  0.0000000E+000 -3.2505340E-021  4.41871