# vtk DataFile Version 2.0
vtk output
ASCII
DATASET UNSTRUCTURED_GRID
POINTS 102 float 
0.0 0.0 0.0
0.2 0.0 0.0
0.2 0.1 0.0
0.0 0.1 0.0
0.00399999999999 0.0 0.0
0.00799999999998 0.0 0.0
0.012 0.0 0.0
0.016 0.0 0.0
0.02 0.0 0.0
0.0239999999999 0.0 0.0
0.0279999999999 0.0 0.0
0.0319999999999 0.0 0.0
0.0359999999999 0.0 0.0
0.0399999999999 0.0 0.0
0.0439999999999 0.0 0.0
0.0479999999999 0.0 0.0
0.0519999999999 0.0 0.0
0.0559999999999 0.0 0.0
0.0599999999999 0.0 0.0
0.0639999999999 0.0 0.0
0.0679999999999 0.0 0.0
0.0719999999999 0.0 0.0
0.0759999999999 0.0 0.0
0.0799999999999 0.0 0.0
0.0839999999999 0.0 0.0
0.0879999999999 0.0 0.0
0.0919999999998 0.0 0.0
0.0959999999998 0.0 0.0
0.0999999999998 0.0 0.0
0.104 0.0 0.0
0.108 0.0 0.0
0.112 0.0 0.0
0.116 0.0 0.0
0.12 0.0 0.0
0.124 0.0 0.0
0.128 0.0 0.0
0.132 0.0 0.0
0.136 0.0 0.0
0.14 0.0 0.0
0.144 0.0 0.0
0.148 0.0 0.0
0.152 0.0 0.0
0.156 0.0 0.0
0.16 0.0 0.0
0.164 0.0 0.0
0.168 0.0 0.0
0.172 0.0 0.0
0.176 0.0 0.0
0.18 0.0 0.0
0.184 0.0 0.0
0.188 0.0 0.0
0.192 0.0 0.0
0.196 0.0 0.0
0.196 0.1 0.0
0.192 0.1 0.0
0.188 0.1 0.0
0.184 0.1 0.0
0.18 0.1 0.0
0.176 0.1 0.0
0.172 0.1 0.0
0.168 0.1 0.0
0.164 0.1 0.0
0.16 0.1 0.0
0.156 0.1 0.0
0.152 0.1 0.0
0.148 0.1 0.0
0.144 0.1 0.0
0.14 0.1 0.0
0.136 0.1 0.0
0.132 0.1 0.0
0.128 0.1 0.0
0.124 0.1 0.0
0.12 0.1 0.0
0.116 0.1 0.0
0.112 0.1 0.0
0.108 0.1 0.0
0.104 0.1 0.0
0.1 0.1 0.0
0.0960000000002 0.1 0.0
0.0920000000002 0.1 0.0
0.0880000000002 0.1 0.0
0.0840000000002 0.1 0.0
0.0800000000002 0.1 0.0
0.0760000000002 0.1 0.0
0.0720000000002 0.1 0.0
0.0680000000002 0.1 0.0
0.0640000000002 0.1 0.0
0.0600000000002 0.1 0.0
0.0560000000002 0.1 0.0
0.0520000000002 0.1 0.0
0.0480000000001 0.1 0.0
0.0440000000001 0.1 0.0
0.0400000000001 0.1 0.0
0.0360000000001 0.1 0.0
0.0320000000001 0.1 0.0
0.0280000000001 0.1 0.0
0.0240000000001 0.1 0.0
0.0200000000001 0.1 0.0
0.016 0.1 0.0
0.012 0.1 0.0
0.00800000000002 0.1 0.0
0.00400000000001 0.1 0.0
CELLS 50 250
4 0 4 101 3
4 4 5 100 101
4 5 6 99 100
4 6 7 98 99
4 7 8 97 98
4 8 9 96 97
4 9 10 95 96
4 10 11 94 95
4 11 12 93 94
4 12 13 92 93
4 13 14 91 92
4 14 15 90 91
4 15 16 89 90
4 16 17 88 89
4 17 18 87 88
4 18 19 86 87
4 19 20 85 86
4 20 21 84 85
4 21 22 83 84
4 22 23 82 83
4 23 24 81 82
4 24 25 80 81
4 25 26 79 80
4 26 27 78 79
4 27 28 77 78
4 28 29 76 77
4 29 30 75 76
4 30 31 74 75
4 31 32 73 74
4 32 33 72 73
4 33 34 71 72
4 34 35 70 71
4 35 36 69 70
4 36 37 68 69
4 37 38 67 68
4 38 39 66 67
4 39 40 65 66
4 40 41 64 65
4 41 42 63 64
4 42 43 62 63
4 43 44 61 62
4 44 45 60 61
4 45 46 59 60
4 46 47 58 59
4 47 48 57 58
4 48 49 56 57
4 49 50 55 56
4 50 51 54 55
4 51 52 53 54
4 52 1 2 53
CELL_TYPES 50
5
5
5
5
5
5
5
5
5
5
5
5
5
5
5
5
5
5
5
5
5
5
5
5
5
5
5
5
5
5
5
5
5
5
5
5
5
5
5
5
5
5
5
5
5
5
5
5
5
5
CELL_DATA  50
SCALARS material_values float
 
LOOKUP_TABLE default
 
0
0
0
0
0
0
0
0
0
0
0
0
0
0
0
0
0
0
0
0
0
0
0
0
0
0
0
0
0
0
0
0
0
0
0
0
0
0
0
0
0
0
0
0
0
0
0
0
0
0
