<VTKFile type="UnstructuredGrid" version="0.1" byte_order="LittleEndian">
  <UnstructuredGrid>
    <Piece NumberOfPoints="518" NumberOfCells="593">
      <PointData Scalars="total head" Vectors="richards flux">
        <DataArray type="Float64" Name="total head" NumberOfComponents="1" format="ascii">
  8.4843818E+000  8.4859969E+000  8.4885663E+000  8.4919150E+000  8.4958148E+000  8.4835376E+000  8.4852399E+000  8.4879480E+000  8.4914777E+000  8.4955885E+000  8.4821128E+000  8.4839622E+000  8.4869046E+000  8.4907397E+000  8.4952063E+000  8.4800264E+000  8.4820911E+000  8.4853762E+000  8.4896585E+000  8.4946465E+000  8.4771663E+000  8.4795256E+000  8.4832802E+000  8.4881756E+000  8.4938786E+000  8.4733802E+000  8.4761287E+000  8.4805040E+000  8.4862106E+000  8.4928607E+000  8.4684662E+000  8.4717178E+000  8.4768967E+000  8.4836558E+000  8.4915367E+000  8.4621618E+000  8.4660543E+000  8.4722601E+000  8.4803684E+000  8.4898316E+000  8.4541301E+000  8.4588294E+000  8.4663340E+000  8.4761587E+000  8.4876452E+000  8.4439448E+000  8.4496457E+000  8.4587767E+000  8.4707724E+000  8.4848406E+000  8.4310744E+000  8.4379954E+000  8.4491353E+000  8.4638595E+000  8.4812247E+000  8.4148718E+000  8.4232348E+000  8.4368004E+000  8.4549178E+000  8.4765066E+000  8.3945774E+000  8.4045728E+000  8.4209392E+000  8.4431773E+000  8.4701948E+000  8.3693416E+000  8.3810866E+000  8.4004993E+000  8.4273041E+000  8.4612993E+000  8.3382696E+000  8.3517847E+000  8.3742711E+000  8.4057468E+000  8.4461660E+000  6.2840865E+000  6.3239256E+000  6.2660322E+000  6.3096542E+000  6.2377854E+000  6.2843341E+000  6.1957606E+000  6.2423478E+000  6.1252488E+000  6.1838110E+000  6.2467675E+000  6.2265570E+000  6.1977112E+000  6.1559254E+000  6.0927540E+000  6.2116651E+000  6.1910171E+000  6.1630768E+000  6.1246501E+000  6.0714519E+000  6.1789015E+000  6.1591720E+000  6.1335026E+000  6.0998807E+000  6.0560420E+000  6.1487230E+000  6.1308930E+000  6.1083395E+000  6.0798734E+000  6.0442076E+000  6.1213972E+000  6.1060437E+000  6.0869543E+000  6.0634584E+000  6.0347889E+000  6.0971392E+000  6.0844743E+000  6.0688372E+000  6.0498794E+000  6.0271481E+000  6.0760782E+000  6.0660324E+000  6.0536037E+000  6.0386441E+000  6.0209095E+000  6.0582474E+000  6.0505641E+000  6.0409644E+000  6.0294225E+000  6.0158378E+000  6.0435871E+000  6.0379077E+000  6.0306908E+000  6.0219804E+000  6.0117737E+000  6.0319577E+000  6.0278881E+000  6.0225878E+000  6.0161376E+000  6.0085995E+000  6.0231647E+000  6.0203197E+000  6.0164802E+000  6.0117452E+000  6.0062206E+000  6.0170009E+000  6.0150269E+000  6.0122162E+000  6.0086808E+000  6.0045606E+000  6.0133131E+000  6.0118821E+000  6.0096887E+000  6.0068609E+000  6.0035682E+000  7.6581949E+000  7.7057247E+000  7.6880601E+000  7.7378902E+000  7.7379847E+000  7.7920556E+000  7.8100441E+000  7.8736999E+000  7.8840081E+000  7.9546458E+000  7.6097834E+000  7.6373521E+000  7.6832647E+000  7.7444018E+000  7.8263762E+000  7.5606369E+000  7.5859206E+000  7.6280252E+000  7.6794672E+000  7.7628565E+000  7.5108207E+000  7.5341617E+000  7.5715112E+000  7.6202785E+000  7.6711210E+000  7.4605465E+000  7.4818286E+000  7.5156899E+000  7.5590628E+000  7.5909265E+000  7.4098765E+000  7.4292254E+000  7.4600690E+000  7.4980550E+000  7.5212445E+000  7.3589114E+000  7.3764917E+000  7.4045201E+000  7.4386078E+000  7.4587412E+000  7.3077500E+000  7.3237031E+000  7.3491173E+000  7.3807947E+000  7.4023827E+000  7.2564867E+000  7.2708973E+000  7.2940375E+000  7.3237435E+000  7.3529249E+000  8.3191112E+000  8.3342418E+000  8.3595343E+000  8.3950807E+000  8.4418037E+000  8.2979281E+000  8.3147785E+000  8.3430378E+000  8.3830640E+000  8.4354437E+000  8.2746009E+000  8.2932553E+000  8.3246697E+000  8.3693501E+000  8.4277967E+000  8.2490178E+000  8.2695491E+000  8.3042664E+000  8.3538633E+000  8.4190151E+000  8.2210797E+000  8.2435369E+000  8.2816816E+000  8.3365051E+000  8.4090674E+000  8.1907017E+000  8.2151025E+000  8.2567638E+000  8.3171166E+000  8.3978258E+000  8.1578160E+000  8.1841378E+000  8.2293441E+000  8.2954708E+000  8.3850794E+000  8.1223756E+000  8.1505461E+000  8.1992340E+000  8.2712634E+000  8.3705135E+000  8.0843581E+000  8.1142470E+000  8.1662302E+000  8.2440971E+000  8.3536596E+000  8.0437692E+000  8.0751849E+000  8.1301279E+000  8.2134639E+000  8.3337972E+000  8.0006457E+000  8.0333368E+000  8.0907463E+000  8.1787375E+000  8.3097656E+000  7.9550582E+000  7.9887183E+000  8.0479649E+000  8.1392199E+000  8.2795815E+000  7.9071128E+000  7.9413878E+000  8.0017423E+000  8.0943734E+000  8.2396156E+000  7.8569407E+000  7.8914862E+000  7.9519839E+000  8.0446259E+000  8.1827080E+000  7.1952134E+000  7.2073047E+000  7.2270062E+000  7.2539272E+000  7.2914837E+000  7.1340711E+000  7.1441588E+000  7.1606843E+000  7.1848174E+000  7.2242720E+000  7.0731607E+000  7.0814829E+000  7.0951925E+000  7.1154426E+000  7.1533169E+000  7.0125875E+000  7.0192634E+000  7.0307213E+000  7.0459338E+000  7.0781909E+000  6.9524648E+000  6.9575114E+000  6.9671091E+000  6.9784757E+000  6.9954655E+000  6.8928361E+000  6.8965177E+000  6.9033133E+000  6.9161811E+000  6.9085448E+000  6.8338993E+000  6.8359657E+000  6.8410357E+000  6.8500896E+000  6.8578279E+000  6.7757283E+000  6.7762041E+000  6.7789090E+000  6.7862125E+000  6.8018000E+000  6.7185058E+000  6.7172655E+000  6.7172621E+000  6.7224633E+000  6.7405899E+000  6.6624199E+000  6.6593249E+000  6.6562289E+000  6.6578643E+000  6.6749219E+000  6.6077103E+000  6.6025926E+000  6.5961104E+000  6.5922508E+000  6.6045812E+000  6.5546120E+000  6.5475154E+000  6.5367955E+000  6.5278683E+000  6.5254910E+000  6.5034518E+000  6.4943208E+000  6.4797211E+000  6.4617512E+000  6.4551267E+000  6.4545008E+000  6.4435902E+000  6.4249729E+000  6.3992097E+000  6.3739836E+000  6.4081061E+000  6.3955868E+000  6.3740004E+000  6.3400016E+000  6.2968577E+000  6.3644887E+000  6.3509450E+000  6.3264372E+000  6.2899100E+000  6.2206566E+000  7.8081210E+000  7.8421598E+000  7.9012662E+000  7.9914183E+000  8.1140719E+000  8.4311102E+000  7.7576964E+000  7.7907358E+000  7.8485501E+000  7.9310566E+000  8.0513607E+000  8.0003640E+000  8.4841981E+000  8.4838309E+000  8.4829570E+000  8.4814821E+000  8.4793223E+000  8.4763617E+000  8.4724431E+000  8.4673579E+000  8.4608358E+000  8.4525309E+000  8.4420079E+000  8.4287293E+000  8.4120488E+000  8.3912181E+000  8.3654103E+000  8.3337612E+000  8.3140730E+000  8.2923297E+000  8.2684148E+000  8.2422241E+000  8.2136664E+000  8.1826675E+000  8.1491731E+000  8.1131516E+000  8.0745975E+000  8.0335338E+000  7.9900135E+000  7.9441202E+000  7.8959659E+000  7.8456930E+000  7.6951971E+000  7.6483216E+000  7.6005838E+000  7.5520908E+000  7.5029865E+000  7.4533401E+000  7.4032798E+000  7.3529041E+000  7.3023048E+000  7.2515666E+000  7.1910967E+000  7.1306647E+000  7.0703958E+000  7.0104077E+000  6.9508108E+000  6.8917537E+000  6.8333351E+000  6.7757284E+000  6.7190912E+000  6.6636197E+000  6.6095278E+000  6.5570718E+000  6.5065024E+000  6.4581119E+000  6.4121565E+000  6.3689203E+000  6.3286311E+000  6.2952976E+000  6.2613851E+000  6.2275596E+000  6.1945136E+000  6.1629767E+000  6.1336452E+000  6.1071123E+000  6.0838078E+000  6.0639672E+000  6.0476348E+000  6.0346956E+000  6.0249268E+000  6.0180676E+000  6.0139098E+000  6.0124615E+000  6.0120716E+000  6.0108377E+000  6.0088522E+000  6.0062561E+000  6.0032330E+000  6.0000000E+000  6.0000000E+000  6.0000000E+000  6.0000000E+000  6.0000000E+000  6.0000000E+000  6.0000000E+000  6.0000000E+000  6.0000000E+000  6.0000000E+000  6.0000000E+000  6.0000000E+000  6.0000000E+000  6.0000000E+000  6.0000000E+000  6.0000000E+000  6.1934577E+000  6.2957685E+000  6.3553691E+000  6.4014075E+000  6.5746750E+000  6.6425581E+000  6.7131839E+000  6.7769880E+000  6.8347906E+000  6.8853059E+000  6.9054839E+000  6.6029719E+000  6.9563705E+000  7.0402107E+000  7.1578204E+000  7.2577231E+000  7.3848166E+000  7.5089904E+000  7.6430161E+000  7.8240031E+000  8.0251881E+000  8.1486617E+000  7.9197659E+000  7.8557701E+000  7.9040126E+000  7.9399995E+000  8.5000000E+000  8.5000000E+000  8.5000000E+000  8.5000000E+000  8.5000000E+000  8.5000000E+000  8.5000000E+000  8.5000000E+000  8.5000000E+000  8.5000000E+000  8.5000000E+000  8.5000000E+000  8.5000000E+000  8.5000000E+000  8.5000000E+000  8.5000000E+000  8.5000000E+000  8.5000000E+000  8.5000000E+000  8.5000000E+000  8.5000000E+000  8.5000000E+000  8.5000000E+000  8.5000000E+000  8.5000000E+000  8.5000000E+000  8.5000000E+000  8.5000000E+000  8.5000000E+000  8.5000000E+000  8.4959099E+000  8.4920987E+000  8.4888260E+000  8.4863150E+000  8.4847365E+000  7.7970352E+000  7.7468010E+000 
        </DataArray>
        <DataArray type="Float64" Name="matric suction" NumberOfComponents="1" format="ascii">
 -7.4843818E+000 -6.4859969E+000 -5.4885663E+000 -4.4919150E+000 -3.4958148E+000 -7.4835376E+000 -6.4852399E+000 -5.4879480E+000 -4.4914777E+000 -3.4955885E+000 -7.4821128E+000 -6.4839622E+000 -5.4869046E+000 -4.4907397E+000 -3.4952063E+000 -7.4800264E+000 -6.4820911E+000 -5.4853762E+000 -4.4896585E+000 -3.4946465E+000 -7.4771663E+000 -6.4795256E+000 -5.4832802E+000 -4.4881756E+000 -3.4938786E+000 -7.4733802E+000 -6.4761287E+000 -5.4805040E+000 -4.4862106E+000 -3.4928607E+000 -7.4684662E+000 -6.4717178E+000 -5.4768967E+000 -4.4836558E+000 -3.4915367E+000 -7.4621618E+000 -6.4660543E+000 -5.4722601E+000 -4.4803684E+000 -3.4898316E+000 -7.4541301E+000 -6.4588294E+000 -5.4663340E+000 -4.4761587E+000 -3.4876452E+000 -7.4439448E+000 -6.4496457E+000 -5.4587767E+000 -4.4707724E+000 -3.4848406E+000 -7.4310744E+000 -6.4379954E+000 -5.4491353E+000 -4.4638595E+000 -3.4812247E+000 -7.4148718E+000 -6.4232348E+000 -5.4368004E+000 -4.4549178E+000 -3.4765066E+000 -7.3945774E+000 -6.4045728E+000 -5.4209392E+000 -4.4431773E+000 -3.4701948E+000 -7.3693416E+000 -6.3810866E+000 -5.4004993E+000 -4.4273041E+000 -3.4612993E+000 -7.3382696E+000 -6.3517847E+000 -5.3742711E+000 -4.4057468E+000 -3.4461660E+000 -5.2840865E+000 -5.3239256E+000 -4.2660322E+000 -4.3096542E+000 -3.2377854E+000 -3.2843341E+000 -2.1957606E+000 -2.2423478E+000 -1.1252488E+000 -1.1838110E+000 -5.2467675E+000 -4.2265570E+000 -3.1977112E+000 -2.1559254E+000 -1.0927540E+000 -5.2116651E+000 -4.1910171E+000 -3.1630768E+000 -2.1246501E+000 -1.0714519E+000 -5.1789015E+000 -4.1591720E+000 -3.1335026E+000 -2.0998807E+000 -1.0560420E+000 -5.1487230E+000 -4.1308930E+000 -3.1083395E+000 -2.0798734E+000 -1.0442076E+000 -5.1213972E+000 -4.1060437E+000 -3.0869543E+000 -2.0634584E+000 -1.0347889E+000 -5.0971392E+000 -4.0844743E+000 -3.0688372E+000 -2.0498794E+000 -1.0271481E+000 -5.0760782E+000 -4.0660324E+000 -3.0536037E+000 -2.0386441E+000 -1.0209095E+000 -5.0582474E+000 -4.0505641E+000 -3.0409644E+000 -2.0294225E+000 -1.0158378E+000 -5.0435871E+000 -4.0379077E+000 -3.0306908E+000 -2.0219804E+000 -1.0117737E+000 -5.0319577E+000 -4.0278881E+000 -3.0225878E+000 -2.0161376E+000 -1.0085995E+000 -5.0231647E+000 -4.0203197E+000 -3.0164802E+000 -2.0117452E+000 -1.0062206E+000 -5.0170009E+000 -4.0150269E+000 -3.0122162E+000 -2.0086808E+000 -1.0045606E+000 -5.0133131E+000 -4.0118821E+000 -3.0096887E+000 -2.0068609E+000 -1.0035682E+000 -6.1581949E+000 -6.2057247E+000 -4.6880601E+000 -4.7378902E+000 -3.2379847E+000 -3.2920556E+000 -1.8100441E+000 -1.8736999E+000 -3.8400808E-001 -4.5464577E-001 -6.1097834E+000 -4.6373521E+000 -3.1832647E+000 -1.7444018E+000 -3.2637615E-001 -6.0606369E+000 -4.5859206E+000 -3.1280252E+000 -1.6794672E+000 -2.6285651E-001 -6.0108207E+000 -4.5341617E+000 -3.0715112E+000 -1.6202785E+000 -1.7112099E-001 -5.9605465E+000 -4.4818286E+000 -3.0156899E+000 -1.5590628E+000 -9.0926503E-002 -5.9098765E+000 -4.4292254E+000 -2.9600690E+000 -1.4980550E+000 -2.1244502E-002 -5.8589114E+000 -4.3764917E+000 -2.9045201E+000 -1.4386078E+000  4.1258768E-002 -5.8077500E+000 -4.3237031E+000 -2.8491173E+000 -1.3807947E+000  9.7617251E-002 -5.7564867E+000 -4.2708973E+000 -2.7940375E+000 -1.3237435E+000  1.4707507E-001 -7.2955613E+000 -6.2866880E+000 -5.2869045E+000 -4.2951943E+000 -3.3097944E+000 -7.2498112E+000 -6.2175853E+000 -5.1945040E+000 -4.1786353E+000 -3.1655922E+000 -7.2009598E+000 -6.1444975E+000 -5.0973380E+000 -4.0566584E+000 -3.0165264E+000 -7.1489526E+000 -6.0674566E+000 -4.9955982E+000 -3.9299377E+000 -2.8639302E+000 -7.0937359E+000 -5.9864644E+000 -4.8894164E+000 -3.7988924E+000 -2.7083989E+000 -7.0352504E+000 -5.9014828E+000 -4.7788212E+000 -3.6636757E+000 -2.5501246E+000 -6.9734289E+000 -5.8124260E+000 -4.6637209E+000 -3.5242047E+000 -2.3890285E+000 -6.9081966E+000 -5.7191585E+000 -4.5439032E+000 -3.3801787E+000 -2.2248005E+000 -6.8394721E+000 -5.6214970E+000 -4.4190428E+000 -3.2310820E+000 -2.0568763E+000 -6.7671688E+000 -5.5192163E+000 -4.2887153E+000 -3.0761738E+000 -1.8843500E+000 -6.6911960E+000 -5.4120543E+000 -4.1524209E+000 -2.9144810E+000 -1.7057832E+000 -6.6114591E+000 -5.2997131E+000 -4.0096152E+000 -2.7448382E+000 -1.5188096E+000 -6.5278581E+000 -5.1818586E+000 -3.8597209E+000 -2.5661063E+000 -1.3192875E+000 -6.4402740E+000 -5.0581529E+000 -3.7019839E+000 -2.3779592E+000 -1.0993747E+000 -5.7326385E+000 -4.2810029E+000 -2.8345478E+000 -1.3913635E+000  4.7079133E-002 -5.7072696E+000 -4.2884852E+000 -2.8717619E+000 -1.4555134E+000 -4.3958501E-002 -5.6807183E+000 -4.2938161E+000 -2.9064060E+000 -1.5158998E+000 -1.2867105E-001 -5.6532906E+000 -4.2973602E+000 -2.9391789E+000 -1.5732133E+000 -2.0710115E-001 -5.6252662E+000 -4.2994421E+000 -2.9703388E+000 -1.6300951E+000 -2.7618751E-001 -5.5968240E+000 -4.3006078E+000 -2.9991833E+000 -1.6900240E+000 -3.3961990E-001 -5.5682691E+000 -4.3007410E+000 -3.0276803E+000 -1.7443236E+000 -4.3801664E-001 -5.5397555E+000 -4.3003399E+000 -3.0546588E+000 -1.7992144E+000 -5.3002378E-001 -5.5115211E+000 -4.2995370E+000 -3.0805765E+000 -1.8527454E+000 -6.1587693E-001 -5.4837844E+000 -4.2985600E+000 -3.1056284E+000 -1.9039994E+000 -6.9635258E-001 -5.4567923E+000 -4.2976238E+000 -3.1301061E+000 -1.9527904E+000 -7.7122621E-001 -5.4307647E+000 -4.2971330E+000 -3.1538148E+000 -2.0012466E+000 -8.3633270E-001 -5.4059921E+000 -4.2972266E+000 -3.1780270E+000 -2.0461680E+000 -9.0894870E-001 -5.3826913E+000 -4.2983541E+000 -3.2025790E+000 -2.0924812E+000 -9.6919725E-001 -5.3611405E+000 -4.3006115E+000 -3.2285888E+000 -2.1393735E+000 -1.0312080E+000 -5.3414847E+000 -4.3044442E+000 -3.2552939E+000 -2.1918429E+000 -1.0906856E+000 -6.3647251E+000 -4.9553676E+000 -3.5710736E+000 -2.2177830E+000 -8.9653332E-001  2.3555652E-001 -6.2865429E+000 -4.8484282E+000 -3.4350827E+000 -2.0463683E+000 -6.9484349E-001  8.3296928E-001 -8.4841981E+000 -8.4838309E+000 -8.4829570E+000 -8.4814821E+000 -8.4793223E+000 -8.4763617E+000 -8.4724431E+000 -8.4673579E+000 -8.4608358E+000 -8.4525309E+000 -8.4420079E+000 -8.4287293E+000 -8.4120488E+000 -8.3912181E+000 -8.3654103E+000 -8.3337612E+000 -8.3140730E+000 -8.2923297E+000 -8.2684148E+000 -8.2422241E+000 -8.2136664E+000 -8.1826675E+000 -8.1491731E+000 -8.1131516E+000 -8.0745975E+000 -8.0335338E+000 -7.9900135E+000 -7.9441202E+000 -7.8959659E+000 -7.8456930E+000 -7.6951971E+000 -7.6483216E+000 -7.6005838E+000 -7.5520908E+000 -7.5029865E+000 -7.4533401E+000 -7.4032798E+000 -7.3529041E+000 -7.3023048E+000 -7.2515666E+000 -7.1910967E+000 -7.1306647E+000 -7.0703958E+000 -7.0104077E+000 -6.9508108E+000 -6.8917537E+000 -6.8333351E+000 -6.7757284E+000 -6.7190912E+000 -6.6636197E+000 -6.6095278E+000 -6.5570718E+000 -6.5065024E+000 -6.4581119E+000 -6.4121565E+000 -6.3689203E+000 -6.3286311E+000 -6.2952976E+000 -6.2613851E+000 -6.2275596E+000 -6.1945136E+000 -6.1629767E+000 -6.1336452E+000 -6.1071123E+000 -6.0838078E+000 -6.0639672E+000 -6.0476348E+000 -6.0346956E+000 -6.0249268E+000 -6.0180676E+000 -6.0139098E+000 -6.0124615E+000 -5.0120716E+000 -4.0108377E+000 -3.0088522E+000 -2.0062561E+000 -1.0032330E+000  0.0000000E+000  0.0000000E+000  0.0000000E+000  0.0000000E+000  0.0000000E+000  0.0000000E+000  0.0000000E+000  0.0000000E+000  0.0000000E+000  0.0000000E+000  0.0000000E+000  0.0000000E+000  0.0000000E+000  0.0000000E+000  0.0000000E+000  0.0000000E+000 -1.6987159E-002  5.7172632E-002  1.7404271E-001  3.0447485E-001  3.0767790E-001  4.1626545E-001  5.2211019E-001  6.3477675E-001  7.5344471E-001  8.7939995E-001  1.0356925E+000  1.5146751E+000  1.3377472E+000  1.4303775E+000  1.4892384E+000  1.5658064E+000  1.6151834E+000  1.4910096E+000  1.3569839E+000  1.1759969E+000  9.7481188E-001  8.5133827E-001  1.0802341E+000  1.1442299E+000  1.0959874E+000  1.0600005E+000  0.0000000E+000 -1.7857143E-001 -3.5714286E-001 -5.3571429E-001 -7.1428571E-001 -8.9285714E-001 -1.0714286E+000 -1.2500000E+000 -1.4285714E+000 -1.6071429E+000 -1.7857143E+000 -1.9642857E+000 -2.1428571E+000 -2.3214286E+000 -2.5000000E+000 -2.5000000E+000 -2.5000000E+000 -2.5000000E+000 -2.5000000E+000 -2.5000000E+000 -2.5000000E+000 -2.5000000E+000 -2.5000000E+000 -2.5000000E+000 -2.5000000E+000 -2.5000000E+000 -2.5000000E+000 -2.5000000E+000 -2.5000000E+000 -2.5000000E+000 -3.4959099E+000 -4.4920987E+000 -5.4888260E+000 -6.4863150E+000 -7.4847365E+000 -7.7970352E+000 -7.7468010E+000 
        </DataArray>
        <DataArray type="Float64" Name="richards flux" NumberOfComponents="3" format="ascii">