# vtk DataFile Version 2.0
obtained via hydraulicmodule
ASCII
DATASET UNSTRUCTURED_GRID
POINTS 2146 double
 0.00000000e+00  0.00000000e+00  0.00000000e+00
 7.50000000e+02  0.00000000e+00  0.00000000e+00
 1.00000000e+03  0.00000000e+00  0.00000000e+00
 1.25000000e+03  0.00000000e+00  0.00000000e+00
 2.25000000e+03  0.00000000e+00  0.00000000e+00
 2.50000000e+03  0.00000000e+00  0.00000000e+00
 3.50000000e+03  0.00000000e+00  0.00000000e+00
 3.75000000e+03  0.00000000e+00  0.00000000e+00
 4.75000000e+03  0.00000000e+00  0.00000000e+00
 0.00000000e+00  5.00000000e+02  0.00000000e+00
 7.50000000e+02  5.00000000e+02  0.00000000e+00
 1.00000000e+03  5.00000000e+02  0.00000000e+00
 1.25000000e+03  5.00000000e+02  0.00000000e+00
 2.25000000e+03  5.00000000e+02  0.00000000e+00
 2.50000000e+03  5.00000000e+02  0.00000000e+00
 3.50000000e+03  5.00000000e+02  0.00000000e+00
 3.75000000e+03  5.00000000e+02  0.00000000e+00
 4.75000000e+03  5.00000000e+02  0.00000000e+00
 0.00000000e+00  1.00000000e+03  0.00000000e+00
 7.50000000e+02  1.00000000e+03  0.00000000e+00
 1.00000000e+03  1.00000000e+03  0.00000000e+00
 1.25000000e+03  1.00000000e+03  0.00000000e+00
 2.25000000e+03  1.00000000e+03  0.00000000e+00
 2.50000000e+03  1.00000000e+03  0.00000000e+00
 3.50000000e+03  1.00000000e+03  0.00000000e+00
 3.75000000e+03  1.00000000e+03  0.00000000e+00
 4.75000000e+03  1.00000000e+03  0.00000000e+00
 0.00000000e+00  1.25000000e+03  0.00000000e+00
 7.50000000e+02  1.25000000e+03  0.00000000e+00
 1.00000000e+03  1.25000000e+03  0.00000000e+00
 1.25000000e+03  1.25000000e+03  0.00000000e+00
 2.25000000e+03  1.25000000e+03  0.00000000e+00
 2.50000000e+03  1.25000000e+03  0.00000000e+00
 3.50000000e+03  1.25000000e+03  0.00000000e+00
 3.75000000e+03  1.25000000e+03  0.00000000e+00
 4.75000000e+03  1.25000000e+03  0.00000000e+00
 0.00000000e+00  2.00000000e+03  0.00000000e+00
 7.50000000e+02  2.00000000e+03  0.00000000e+00
 1.00000000e+03  2.00000000e+03  0.00000000e+00
 1.25000000e+03  2.00000000e+03  0.00000000e+00
 2.25000000e+03  2.00000000e+03  0.00000000e+00
 2.50000000e+03  2.00000000e+03  0.00000000e+00
 3.50000000e+03  2.00000000e+03  0.00000000e+00
 3.75000000e+03  2.00000000e+03  0.00000000e+00
 4.75000000e+03  2.00000000e+03  0.00000000e+00
 0.00000000e+00  3.00000000e+03  0.00000000e+00
 7.50000000e+02  3.00000000e+03  0.00000000e+00
 1.00000000e+03  3.00000000e+03  0.00000000e+00
 1.25000000e+03  3.00000000e+03  0.00000000e+00
 2.25000000e+03  3.00000000e+03  0.00000000e+00
 2.50000000e+03  3.00000000e+03  0.00000000e+00
 3.50000000e+03  3.00000000e+03  0.00000000e+00
 3.75000000e+03  3.00000000e+03  0.00000000e+00
 4.75000000e+03  3.00000000e+03  0.00000000e+00
 8.33333333e+01  0.00000000e+00  0.00000000e+00
 1.66666667e+02  0.00000000e+00  0.00000000e+00
 2.50000000e+02  0.00000000e+00  0.00000000e+00
 3.33333333e+02  0.00000000e+00  0.00000000e+00
 4.16666667e+02  0.00000000e+00  0.00000000e+00
 5.00000000e+02  0.00000000e+00  0.00000000e+00
 5.83333333e+02  0.00000000e+00  0.00000000e+00
 6.66666667e+02  0.00000000e+00  0.00000000e+00
 8.33333333e+02  0.00000000e+00  0.00000000e+00
 9.16666667e+02  0.00000000e+00  0.00000000e+00
 1.08333333e+03  0.00000000e+00  0.00000000e+00
 1.16666667e+03  0.00000000e+00  0.00000000e+00
 1.33333333e+03  0.00000000e+00  0.00000000e+00
 1.41666667e+03  0.00000000e+00  0.00000000e+00
 1.50000000e+03  0.00000000e+00  0.00000000e+00
 1.58333333e+03  0.00000000e+00  0.00000000e+00
 1.66666667e+03  0.00000000e+00  0.00000000e+00
 1.75000000e+03  0.00000000e+00  0.00000000e+00
 1.83333333e+03  0.00000000e+00  0.00000000e+00
 1.91666667e+03  0.00000000e+00  0.00000000e+00
 2.00000000e+03  0.00000000e+00  0.00000000e+00
 2.08333333e+03  0.00000000e+00  0.00000000e+00
 2.16666667e+03  0.00000000e+00  0.00000000e+00
 2.33333333e+03  0.00000000e+00  0.00000000e+00
 2.41666667e+03  0.00000000e+00  0.00000000e+00
 2.58333333e+03  0.00000000e+00  0.00000000e+00
 2.66666667e+03  0.00000000e+00  0.00000000e+00
 2.75000000e+03  0.00000000e+00  0.00000000e+00
 2.83333333e+03  0.00000000e+00  0.00000000e+00
 2.91666667e+03  0.00000000e+00  0.00000000e+00
 3.00000000e+03  0.00000000e+00  0.00000000e+00
 3.08333333e+03  0.00000000e+00  0.00000000e+00
 3.16666667e+03  0.00000000e+00  0.00000000e+00
 3.25000000e+03  0.00000000e+00  0.00000000e+00
 3.33333333e+03  0.00000000e+00  0.00000000e+00
 3.41666667e+03  0.00000000e+00  0.00000000e+00
 3.58333333e+03  0.00000000e+00  0.00000000e+00
 3.66666667e+03  0.00000000e+00  0.00000000e+00
 3.83333333e+03  0.00000000e+00  0.00000000e+00
 3.91666667e+03  0.00000000e+00  0.00000000e+00
 4.00000000e+03  0.00000000e+00  0.00000000e+00
 4.08333333e+03  0.00000000e+00  0.00000000e+00
 4.16666667e+03  0.00000000e+00  0.00000000e+00
 4.25000000e+03  0.00000000e+00  0.00000000e+00
 4.33333333e+03  0.00000000e+00  0.00000000e+00
 4.41666667e+03  0.00000000e+00  0.00000000e+00
 4.50000000e+03  0.00000000e+00  0.00000000e+00
 4.58333333e+03  0.00000000e+00  0.00000000e+00
 4.66666667e+03  0.00000000e+00  0.00000000e+00
 8.33333333e+01  5.00000000e+02  0.00000000e+00
 1.66666667e+02  5.00000000e+02  0.00000000e+00
 2.50000000e+02  5.00000000e+02  0.00000000e+00
 3.33333333e+02  5.00000000e+02  0.00000000e+00
 4.16666667e+02  5.00000000e+02  0.00000000e+00
 5.00000000e+02  5.00000000e+02  0.00000000e+00
 5.83333333e+02  5.00000000e+02  0.00000000e+00
 6.66666667e+02  5.00000000e+02  0.00000000e+00
 8.33333333e+02  5.00000000e+02  0.00000000e+00
 9.16666667e+02  5.00000000e+02  0.00000000e+00
 1.08333333e+03  5.00000000e+02  0.00000000e+00
 1.16666667e+03  5.00000000e+02  0.00000000e+00
 1.33333333e+03  5.00000000e+02  0.00000000e+00
 1.41666667e+03  5.00000000e+02  0.00000000e+00
 1.50000000e+03  5.00000000e+02  0.00000000e+00
 1.58333333e+03  5.00000000e+02  0.00000000e+00
 1.66666667e+03  5.00000000e+02  0.00000000e+00
 1.75000000e+03  5.00000000e+02  0.00000000e+00
 1.83333333e+03  5.00000000e+02  0.00000000e+00
 1.91666667e+03  5.00000000e+02  0.00000000e+00
 2.00000000e+03  5.00000000e+02  0.00000000e+00
 2.08333333e+03  5.00000000e+02  0.00000000e+00
 2.16666667e+03  5.00000000e+02  0.00000000e+00
 2.33333333e+03  5.00000000e+02  0.00000000e+00
 2.41666667e+03  5.00000000e+02  0.00000000e+00
 2.58333333e+03  5.00000000e+02  0.00000000e+00
 2.66666667e+03  5.00000000e+02  0.00000000e+00
 2.75000000e+03  5.00000000e+02  0.00000000e+00
 2.83333333e+03  5.00000000e+02  0.00000000e+00
 2.91666667e+03  5.00000000e+02  0.00000000e+00
 3.00000000e+03  5.00000000e+02  0.00000000e+00
 3.08333333e+03  5.00000000e+02  0.00000000e+00
 3.16666667e+03  5.00000000e+02  0.00000000e+00
 3.25000000e+03  5.00000000e+02  0.00000000e+00
 3.33333333e+03  5.00000000e+02  0.00000000e+00
 3.41666667e+03  5.00000000e+02  0.00000000e+00
 3.58333333e+03  5.00000000e+02  0.00000000e+00
 3.66666667e+03  5.00000000e+02  0.00000000e+00
 3.83333333e+03  5.00000000e+02  0.00000000e+00
 3.91666667e+03  5.00000000e+02  0.00000000e+00
 4.00000000e+03  5.00000000e+02  0.00000000e+00
 4.08333333e+03  5.00000000e+02  0.00000000e+00
 4.16666667e+03  5.00000000e+02  0.00000000e+00
 4.25000000e+03  5.00000000e+02  0.00000000e+00
 4.33333333e+03  5.00000000e+02  0.00000000e+00
 4.41666667e+03  5.00000000e+02  0.00000000e+00
 4.50000000e+03  5.00000000e+02  0.00000000e+00
 4.58333333e+03  5.00000000e+02  0.00000000e+00
 4.66666667e+03  5.00000000e+02  0.00000000e+00
 8.33333333e+01  1.00000000e+03  0.00000000e+00
 1.66666667e+02  1.00000000e+03  0.00000000e+00
 2.50000000e+02  1.00000000e+03  0.00000000e+00
 3.33333333e+02  1.00000000e+03  0.00000000e+00
 4.16666667e+02  1.00000000e+03  0.00000000e+00
 5.00000000e+02  1.00000000e+03  0.00000000e+00
 5.83333333e+02  1.00000000e+03  0.00000000e+00
 6.66666667e+02  1.00000000e+03  0.00000000e+00
 8.33333333e+02  1.00000000e+03  0.00000000e+00
 9.16666667e+02  1.00000000e+03  0.00000000e+00
 1.08333333e+03  1.00000000e+03  0.00000000e+00
 1.16666667e+03  1.00000000e+03  0.00000000e+00
 1.33333333e+03  1.00000000e+03  0.00000000e+00
 1.41666667e+03  1.00000000e+03  0.00000000e+00
 1.50000000e+03  1.00000000e+03  0.00000000e+00
 1.58333333e+03  1.00000000e+03  0.00000000e+00
 1.66666667e+03  1.00000000e+03  0.00000000e+00
 1.75000000e+03  1.00000000e+03  0.00000000e+00
 1.83333333e+03  1.00000000e+03  0.00000000e+00
 1.91666667e+03  1.00000000e+03  0.00000000e+00
 2.00000000e+03  1.00000000e+03  0.00000000e+00
 2.08333333e+03  1.00000000e+03  0.00000000e+00
 2.16666667e+03  1.00000000e+03  0.00000000e+00
 2.33333333e+03  1.00000000e+03  0.00000000e+00
 2.41666667e+03  1.00000000e+03  0.00000000e+00
 2.58333333e+03  1.00000000e+03  0.00000000e+00
 2.66666667e+03  1.00000000e+03  0.00000000e+00
 2.75000000e+03  1.00000000e+03  0.00000000e+00
 2.83333333e+03  1.00000000e+03  0.00000000e+00
 2.91666667e+03  1.00000000e+03  0.00000000e+00
 3.00000000e+03  1.00000000e+03  0.00000000e+00
 3.08333333e+03  1.00000000e+03  0.00000000e+00
 3.16666667e+03  1.00000000e+03  0.00000000e+00
 3.25000000e+03  1.00000000e+03  0.00000000e+00
 3.33333333e+03  1.00000000e+03  0.00000000e+00
 3.41666667e+03  1.00000000e+03  0.00000000e+00
 3.58333333e+03  1.00000000e+03  0.00000000e+00
 3.66666667e+03  1.00000000e+03  0.00000000e+00
 3.83333333e+03  1.00000000e+03  0.00000000e+00
 3.91666667e+03  1.00000000e+03  0.00000000e+00
 4.00000000e+03  1.00000000e+03  0.00000000e+00
 4.08333333e+03  1.00000000e+03  0.00000000e+00
 4.16666667e+03  1.00000000e+03  0.00000000e+00
 4.25000000e+03  1.00000000e+03  0.00000000e+00
 4.33333333e+03  1.00000000e+03  0.00000000e+00
 4.41666667e+03  1.00000000e+03  0.00000000e+00
 4.50000000e+03  1.00000000e+03  0.00000000e+00
 4.58333333e+03  1.00000000e+03  0.00000000e+00
 4.66666667e+03  1.00000000e+03  0.00000000e+00
 8.33333333e+01  1.25000000e+03  0.00000000e+00
 1.66666667e+02  1.25000000e+03  0.00000000e+00
 2.50000000e+02  1.25000000e+03  0.00000000e+00
 3.33333333e+02  1.25000000e+03  0.00000000e+00
 4.16666667e+02  1.25000000e+03  0.00000000e+00
[...]
POINT_DATA 2146
VECTORS vectors float
 5.297838e-08 -5.611533e-10 0.000000e+00
  1.924244e-08 2.786659e-09 0.000000e+00
  1.971123e-09 1.032960e-09 0.000000e+00
  2.428121e-09 -2.786325e-09 0.000000e+00
  9.541757e-08 -4.831713e-09 0.000000e+00
  1.159651e-07 -5.054585e-09 0.000000e+00
  2.618861e-07 -8.669650e-09 0.000000e+00
  2.630750e-07 9.256233e-10 0.000000e+00
  1.483478e-07 -1.795630e-09 0.000000e+00
  7.494522e-08 1.809510e-09 0.000000e+00
  2.223395e-08 3.907488e-08 0.000000e+00
  2.168979e-09 1.954765e-08 0.000000e+00
  2.362674e-09 -2.527519e-08 0.000000e+00
  1.021399e-07 -4.213648e-08 0.000000e+00
  1.153352e-07 -3.454996e-08 0.000000e+00
  2.611433e-07 -1.717760e-07 0.000000e+00
  2.599040e-07 2.132183e-07 0.000000e+00
  1.226274e-07 8.691490e-10 0.000000e+00
  2.518779e-07 2.571582e-07 0.000000e+00
  2.220729e-08 8.637199e-08 0.000000e+00
  2.098205e-09 4.200762e-08 0.000000e+00
  1.894307e-09 -4.723518e-08 0.000000e+00
  1.323528e-07 -1.159226e-07 0.000000e+00
  9.055293e-08 3.983690e-08 0.000000e+00
  3.585709e-09 -5.053531e-08 0.000000e+00
  3.837047e-09 4.260565e-08 0.000000e+00
  7.233728e-08 1.604721e-09 0.000000e+00
  1.098669e-08 1.654222e-07 0.000000e+00
  1.869028e-08 1.065147e-07 0.000000e+00
  1.850322e-09 5.222483e-08 0.000000e+00
  1.622556e-09 -5.594778e-08 0.000000e+00
  3.717310e-09 -7.793277e-08 0.000000e+00
  3.253987e-09 -3.874738e-09 0.000000e+00
  1.934654e-09 -3.569844e-08 0.000000e+00
  2.311967e-09 2.704279e-08 0.000000e+00
  5.142369e-08 1.318932e-09 0.000000e+00
  3.443992e-09 9.016314e-08 0.000000e+00
  7.246967e-08 1.217253e-07 0.000000e+00
  1.547522e-07 1.541414e-07 0.000000e+00
  1.548314e-07 -1.212670e-07 0.000000e+00
  1.814442e-09 -4.577076e-08 0.000000e+00
  3.463730e-10 -2.018726e-08 0.000000e+00
  5.357243e-10 -2.304241e-08 0.000000e+00
  9.237281e-10 7.643162e-09 0.000000e+00
  1.730385e-08 4.338267e-10 0.000000e+00
  3.745102e-09 2.433233e-09 0.000000e+00
  6.083465e-08 1.593442e-09 0.000000e+00
  7.114411e-08 -7.056936e-11 0.000000e+00
  7.113359e-08 -1.909377e-09 0.000000e+00
  2.024912e-09 -2.526859e-09 0.000000e+00
  9.747391e-11 -2.138139e-08 0.000000e+00
  2.545334e-10 -2.209988e-08 0.000000e+00
  6.169211e-10 1.375630e-10 0.000000e+00
  7.136631e-09 -7.974777e-11 0.000000e+00
  5.245745e-08 -2.071671e-10 0.000000e+00
  5.091582e-08 3.151860e-10 0.000000e+00
  4.841385e-08 8.115581e-10 0.000000e+00
  4.504347e-08 1.267276e-09 0.000000e+00
  4.091738e-08 1.673274e-09 0.000000e+00
  3.615748e-08 2.026003e-09 0.000000e+00
  3.088490e-08 2.326376e-09 0.000000e+00
  2.521280e-08 2.578219e-09 0.000000e+00
  1.306236e-08 2.956766e-09 0.000000e+00
  6.749756e-09 2.822152e-09 0.000000e+00
  3.727488e-10 -2.754041e-10 0.000000e+00
  3.729251e-10 -3.525734e-10 0.000000e+00
  8.592805e-09 -4.583335e-09 0.000000e+00
  1.681351e-08 -4.351313e-09 0.000000e+00
  2.503443e-08 -4.464467e-09 0.000000e+00
  3.324845e-08 -4.572314e-09 0.000000e+00
  4.144078e-08 -4.670312e-09 0.000000e+00
  4.958741e-08 -4.753253e-09 0.000000e+00
  5.765481e-08 -4.816078e-09 0.000000e+00
  6.560174e-08 -4.855092e-09 0.000000e+00
  7.338364e-08 -4.869499e-09 0.000000e+00
  8.096009e-08 -4.863011e-09 0.000000e+00
  8.830487e-08 -4.845134e-09 0.000000e+00
  1.023348e-07 -4.844443e-09 0.000000e+00
  1.091394e-07 -4.909350e-09 0.000000e+00
  1.229971e-07 -5.308031e-09 0.000000e+00
  1.304683e-07 -5.695150e-09 0.000000e+00
  1.386507e-07 -6.236996e-09 0.000000e+00
  1.478440e-07 -6.947477e-09 0.000000e+00
  1.583549e-07 -7.827688e-09 0.000000e+00
  1.704605e-07 -8.853706e-09 0.000000e+00
  1.843373e-07 -9.953755e-09 0.000000e+00
  1.999363e-07 -1.097635e-08 0.000000e+00
  2.168056e-07 -1.166746e-08 0.000000e+00
  2.339164e-07 -1.169258e-08 0.000000e+00
  2.496226e-07 -1.073774e-08 0.000000e+00
  2.687925e-07 -5.673929e-09 0.000000e+00
  2.691802e-07 -2.255844e-09 0.000000e+00
  2.516854e-07 3.317486e-09 0.000000e+00
  2.369649e-07 4.662316e-09 0.000000e+00
  2.209840e-07 5.027503e-09 0.000000e+00
  2.054229e-07 4.681713e-09 0.000000e+00
  1.913546e-07 3.933574e-09 0.000000e+00
  1.792942e-07 3.020822e-09 0.000000e+00
  1.693775e-07 2.082215e-09 0.000000e+00
  1.615407e-07 1.178457e-09 0.000000e+00
  1.556461e-07 3.245498e-10 0.000000e+00
  1.515514e-07 -4.871292e-10 0.000000e+00
  1.491426e-07 -1.274460e-09 0.000000e+00
  7.376300e-08 7.431404e-09 0.000000e+00
  7.038557e-08 1.527414e-08 0.000000e+00
  6.525327e-08 2.198581e-08 0.000000e+00
  5.891860e-08 2.735885e-08 0.000000e+00
  5.188761e-08 3.144025e-08 0.000000e+00
  4.453084e-08 3.442654e-08 0.000000e+00
  3.707279e-08 3.655731e-08 0.000000e+00
  2.962613e-08 3.804989e-08 0.000000e+00
  1.490165e-08 3.975483e-08 0.000000e+00
  7.616126e-09 3.986424e-08 0.000000e+00
  3.550598e-10 -3.089626e-10 0.000000e+00
  3.551352e-10 -3.474727e-10 0.000000e+00
  8.396005e-09 -4.963561e-08 0.000000e+00
  1.648460e-08 -4.957165e-08 0.000000e+00
  2.467067e-08 -4.993010e-08 0.000000e+00
  3.300343e-08 -5.033533e-08 0.000000e+00
  4.152968e-08 -5.072609e-08 0.000000e+00
  5.028528e-08 -5.100776e-08 0.000000e+00
  5.927721e-08 -5.104393e-08 0.000000e+00
  6.845259e-08 -5.065637e-08 0.000000e+00
  7.765857e-08 -4.964840e-08 0.000000e+00
  8.661259e-08 -4.786581e-08 0.000000e+00
  9.491654e-08 -4.529166e-08 0.000000e+00
  1.079585e-07 -3.886460e-08 0.000000e+00
  1.122875e-07 -3.611620e-08 0.000000e+00
  1.175460e-07 -3.468432e-08 0.000000e+00
  1.194676e-07 -3.682127e-08 0.000000e+00
  1.216151e-07 -4.107862e-08 0.000000e+00
  1.243953e-07 -4.749989e-08 0.000000e+00
  1.281072e-07 -5.618601e-08 0.000000e+00
  1.330040e-07 -6.742209e-08 0.000000e+00
  1.394023e-07 -8.182178e-08 0.000000e+00
  1.478629e-07 -1.005931e-07 0.000000e+00
  1.596535e-07 -1.261340e-07 0.000000e+00
  1.776086e-07 -1.651990e-07 0.000000e+00
  2.223833e-07 -2.209252e-07 0.000000e+00
  2.440816e-07 -1.491035e-08 0.000000e+00
  2.434025e-07 2.840932e-08 0.000000e+00
  2.221349e-07 2.323054e-07 0.000000e+00
  1.787331e-07 1.513641e-07 0.000000e+00
  1.616829e-07 1.151130e-07 0.000000e+00
  1.506251e-07 8.953615e-08 0.000000e+00
  1.427478e-07 7.040135e-08 0.000000e+00
  1.367807e-07 5.522882e-08 0.000000e+00
  1.321606e-07 4.270348e-08 0.000000e+00
  1.285984e-07 3.201167e-08 0.000000e+00
  1.259359e-07 2.259934e-08 0.000000e+00
  1.240833e-07 1.405520e-08 0.000000e+00
  1.229893e-07 6.049613e-09 0.000000e+00
  1.925191e-07 1.842635e-07 0.000000e+00
  1.161195e-07 1.245795e-07 0.000000e+00
  8.857440e-08 1.112719e-07 0.000000e+00
  7.077088e-08 1.019933e-07 0.000000e+00
  5.776373e-08 9.605176e-08 0.000000e+00
  4.724889e-08 9.206375e-08 0.000000e+00
  3.816627e-08 8.936225e-08 0.000000e+00
  2.993354e-08 8.754913e-08 0.000000e+00
  1.477560e-08 8.566365e-08 0.000000e+00
  7.503904e-09 8.501221e-08 0.000000e+00
  3.012985e-10 -3.020957e-10 0.000000e+00
  3.012232e-10 -2.800347e-10 0.000000e+00
  6.671720e-09 -9.389762e-08 0.000000e+00
  1.304085e-08 -9.435332e-08 0.000000e+00
  1.941971e-08 -9.556414e-08 0.000000e+00
  2.584263e-08 -9.737013e-08 0.000000e+00
  3.238277e-08 -9.993661e-08 0.000000e+00
  3.917400e-08 -1.035084e-07 0.000000e+00
  4.645205e-08 -1.084627e-07 0.000000e+00
  5.464440e-08 -1.154357e-07 0.000000e+00
  6.464449e-08 -1.256128e-07 0.000000e+00
  7.835587e-08 -1.424441e-07 0.000000e+00
  1.087431e-07 -1.650070e-07 0.000000e+00
  1.143511e-07 -1.338952e-08 0.000000e+00
  9.447557e-08 -3.337147e-10 0.000000e+00
  7.967333e-08 2.773505e-08 0.000000e+00
  6.985776e-08 -3.155791e-09 0.000000e+00
  6.590210e-08 -2.046912e-08 0.000000e+00
  6.274916e-08 -3.424132e-08 0.000000e+00
  5.952217e-08 -4.619905e-08 0.000000e+00
  5.563473e-08 -5.720029e-08 0.000000e+00
  5.061702e-08 -6.755846e-08 0.000000e+00
  4.405080e-08 -7.722695e-08 0.000000e+00
  3.562485e-08 -8.583941e-08 0.000000e+00
  2.526152e-08 -9.276213e-08 0.000000e+00
  1.324936e-08 -9.781364e-08 0.000000e+00
  2.774980e-10 -5.782002e-10 0.000000e+00
  2.775991e-10 -6.081679e-10 0.000000e+00
  1.424917e-08 8.538577e-08 0.000000e+00
  2.724044e-08 8.141209e-08 0.000000e+00
  3.853789e-08 7.464785e-08 0.000000e+00
  4.782003e-08 6.650245e-08 0.000000e+00
  5.511828e-08 5.768694e-08 0.000000e+00
  6.067635e-08 4.870337e-08 0.000000e+00
  6.480780e-08 3.983972e-08 0.000000e+00
  6.780665e-08 3.122271e-08 0.000000e+00
  6.991093e-08 2.287732e-08 0.000000e+00
  7.129664e-08 1.477033e-08 0.000000e+00
  7.208266e-08 6.837148e-09 0.000000e+00
  1.989777e-08 1.617882e-07 0.000000e+00
  3.372836e-08 1.512869e-07 0.000000e+00
  3.981238e-08 1.376242e-07 0.000000e+00
  4.021410e-08 1.266084e-07 0.000000e+00
  3.779650e-08 1.187894e-07 0.000000e+00
  3.400294e-08 1.134700e-07 0.000000e+00
  2.941206e-08 1.099745e-07 0.000000e+00
  2.426877e-08 1.077875e-07 0.000000e+00
  1.276198e-08 1.058531e-07 0.000000e+00
  6.579772e-09 1.053101e-07 0.000000e+00
  2.618084e-10 -2.662786e-10 0.000000e+00
  2.617213e-10 -2.425379e-10 0.000000e+00
  5.659328e-09 -1.113029e-07 0.000000e+00
  1.088122e-08 -1.114226e-07 0.000000e+00
  1.576841e-08 -1.120702e-07 0.000000e+00
  2.018434e-08 -1.131860e-07 0.000000e+00
  2.400634e-08 -1.149888e-07 0.000000e+00
  2.709449e-08 -1.177344e-07 0.000000e+00
  2.922799e-08 -1.217110e-07 0.000000e+00
  2.998579e-08 -1.272189e-07 0.000000e+00
  2.849723e-08 -1.344937e-07 0.000000e+00
  2.327916e-08 -1.430984e-07 0.000000e+00
  1.342417e-08 -1.509852e-07 0.000000e+00
  9.996107e-11 -6.697270e-10 0.000000e+00
  9.909639e-11 -5.712965e-10 0.000000e+00
  1.192042e-08 -8.818991e-09 0.000000e+00
  2.123490e-08 -1.503708e-08 0.000000e+00
  2.703885e-08 -2.357975e-08 0.000000e+00
  2.974886e-08 -3.217364e-08 0.000000e+00
  3.025028e-08 -4.016276e-08 0.000000e+00
  2.911140e-08 -4.741679e-08 0.000000e+00
  2.663021e-08 -5.388569e-08 0.000000e+00
  2.298553e-08 -5.948314e-08 0.000000e+00
  1.832734e-08 -6.407384e-08 0.000000e+00
  1.283217e-08 -6.749286e-08 0.000000e+00
  6.730634e-09 -6.985817e-08 0.000000e+00
  3.082103e-10 -2.871115e-10 0.000000e+00
  3.083588e-10 -3.421717e-10 0.000000e+00
  8.245578e-09 5.438818e-08 0.000000e+00
  1.588980e-08 5.268257e-08 0.000000e+00
  2.298945e-08 4.949944e-08 0.000000e+00
  2.936018e-08 4.537720e-08 0.000000e+00
  3.489584e-08 4.053420e-08 0.000000e+00
  3.956090e-08 3.517707e-08 0.000000e+00
  4.337205e-08 2.947975e-08 0.000000e+00
  4.637665e-08 2.357504e-08 0.000000e+00
  4.863368e-08 1.755568e-08 0.000000e+00
  5.019977e-08 1.148092e-08 0.000000e+00
  5.112016e-08 5.385218e-09 0.000000e+00
  6.889494e-09 9.086223e-08 0.000000e+00
  1.378910e-08 9.186847e-08 0.000000e+00
  2.072477e-08 9.272322e-08 0.000000e+00
  2.775482e-08 9.413809e-08 0.000000e+00
  3.498884e-08 9.630831e-08 0.000000e+00
  4.261483e-08 9.952206e-08 0.000000e+00
  5.094825e-08 1.042231e-07 0.000000e+00
  6.053665e-08 1.111490e-07 0.000000e+00
  8.898925e-08 1.383091e-07 0.000000e+00
  1.244804e-07 1.830083e-07 0.000000e+00
  1.440755e-07 2.085925e-08 0.000000e+00
  1.441343e-07 -9.754253e-09 0.000000e+00
  1.243909e-07 -1.700674e-07 0.000000e+00
  8.867830e-08 -1.431614e-07 0.000000e+00
  7.199411e-08 -1.242404e-07 0.000000e+00
  5.993396e-08 -1.131273e-07 0.000000e+00
  5.026140e-08 -1.057167e-07 0.000000e+00
  4.189343e-08 -1.005702e-07 0.000000e+00
  3.428809e-08 -9.692741e-08 0.000000e+00
  2.713244e-08 -9.434728e-08 0.000000e+00
  2.023669e-08 -9.255143e-08 0.000000e+00
  1.348414e-08 -9.135719e-08 0.000000e+00
  6.804123e-09 -9.092723e-08 0.000000e+00
  1.528310e-10 -2.972324e-10 0.000000e+00
  1.522518e-10 -4.666853e-11 0.000000e+00
  9.153494e-10 -4.036997e-08 0.000000e+00
  1.624102e-09 -4.064505e-08 0.000000e+00
  2.228409e-09 -4.112662e-08 0.000000e+00
  2.687351e-09 -4.174439e-08 0.000000e+00
  2.972054e-09 -4.245229e-08 0.000000e+00
  3.067189e-09 -4.319937e-08 0.000000e+00
  2.971128e-09 -4.393395e-08 0.000000e+00
  2.695021e-09 -4.460710e-08 0.000000e+00
  2.261170e-09 -4.517553e-08 0.000000e+00
  1.700999e-09 -4.560376e-08 0.000000e+00
  1.052834e-09 -4.589573e-08 0.000000e+00
  3.595720e-10 -4.015151e-11 0.000000e+00
  3.597266e-10 -1.014926e-10 0.000000e+00
  2.604677e-09 1.542423e-08 0.000000e+00
  4.807606e-09 1.507888e-08 0.000000e+00
  6.928255e-09 1.437299e-08 0.000000e+00
  8.928415e-09 1.341721e-08 0.000000e+00
  1.077321e-08 1.223144e-08 0.000000e+00
  1.243180e-08 1.083943e-08 0.000000e+00
  1.387773e-08 9.267904e-09 0.000000e+00
  1.508913e-08 7.545632e-09 0.000000e+00
  1.604860e-08 5.702710e-09 0.000000e+00
  1.674299e-08 3.769969e-09 0.000000e+00
  1.716318e-08 1.778574e-09 0.000000e+00
  7.481385e-09 3.005974e-09 0.000000e+00
  1.492646e-08 3.508539e-09 0.000000e+00
  2.229397e-08 3.356336e-09 0.000000e+00
  2.953284e-08 3.177258e-09 0.000000e+00
  3.657759e-08 2.963879e-09 0.000000e+00
  4.334446e-08 2.707338e-09 0.000000e+00
  4.972904e-08 2.398356e-09 0.000000e+00
  5.560640e-08 2.028757e-09 0.000000e+00
  6.526283e-08 1.092500e-09 0.000000e+00
  6.874282e-08 5.329416e-10 0.000000e+00
  7.236902e-08 -6.964466e-10 0.000000e+00
  7.236536e-08 -1.318492e-09 0.000000e+00
  6.872681e-08 -2.444488e-09 0.000000e+00
  6.524359e-08 -2.905166e-09 0.000000e+00
  6.081525e-08 -3.280615e-09 0.000000e+00
  5.559060e-08 -3.568157e-09 0.000000e+00
  4.972115e-08 -3.772064e-09 0.000000e+00
  4.334910e-08 -3.901491e-09 0.000000e+00
  3.659946e-08 -3.968172e-09 0.000000e+00
  2.957643e-08 -3.984365e-09 0.000000e+00
  2.236323e-08 -3.961334e-09 0.000000e+00
  1.502457e-08 -3.908411e-09 0.000000e+00
  7.610409e-09 -4.147778e-09 0.000000e+00
  1.586284e-10 -3.186248e-10 0.000000e+00
  1.544423e-10 1.258438e-12 0.000000e+00
  3.620578e-11 -4.284001e-08 0.000000e+00
  2.878213e-11 -4.292645e-08 0.000000e+00
  2.959193e-11 -4.301298e-08 0.000000e+00
  3.182756e-11 -4.310650e-08 0.000000e+00
  3.409830e-11 -4.320713e-08 0.000000e+00
  3.595025e-11 -4.331377e-08 0.000000e+00
  3.741064e-11 -4.342511e-08 0.000000e+00
  3.897560e-11 -4.354100e-08 0.000000e+00
  4.197534e-11 -4.366457e-08 0.000000e+00
  4.993587e-11 -4.380919e-08 0.000000e+00
  8.073695e-11 -4.402327e-08 0.000000e+00
  4.006727e-10 1.312098e-11 0.000000e+00
  3.972197e-10 -4.367688e-11 0.000000e+00
  1.274941e-09 3.833188e-10 0.000000e+00
  2.139172e-09 3.977092e-10 0.000000e+00
  2.974065e-09 3.676904e-10 0.000000e+00
  3.765080e-09 3.311834e-10 0.000000e+00
  4.498523e-09 2.888523e-10 0.000000e+00
  5.161747e-09 2.414503e-10 0.000000e+00
  5.743355e-09 1.898098e-10 0.000000e+00
  6.233382e-09 1.348293e-10 0.000000e+00
  6.623453e-09 7.745826e-11 0.000000e+00
  6.906916e-09 1.868262e-11 0.000000e+00
  7.078938e-09 -4.050183e-11 0.000000e+00
  5.350663e-08 -3.896689e-10 0.000000e+00
  5.511471e-08 -4.249984e-11 0.000000e+00
  5.787611e-08 3.223800e-10 0.000000e+00
  6.192742e-08 7.272876e-10 0.000000e+00
  6.749468e-08 1.205062e-09 0.000000e+00
  8.489260e-08 2.638090e-09 0.000000e+00
  9.842797e-08 3.886207e-09 0.000000e+00
  1.177083e-07 6.010788e-09 0.000000e+00
  1.477233e-07 9.929562e-09 0.000000e+00
  2.064185e-07 3.950167e-08 0.000000e+00
  7.752971e-08 2.770087e-07 0.000000e+00
  1.953246e-08 1.869462e-07 0.000000e+00
  6.884659e-09 1.490636e-07 0.000000e+00
  4.939206e-09 1.380136e-07 0.000000e+00
  3.912911e-09 1.295374e-07 0.000000e+00
  3.383381e-09 1.224288e-07 0.000000e+00
  3.147629e-09 1.159764e-07 0.000000e+00
  3.095737e-09 1.097446e-07 0.000000e+00
  3.158582e-09 1.034600e-07 0.000000e+00
  3.287136e-09 9.695978e-08 0.000000e+00
  3.600429e-09 8.305233e-08 0.000000e+00
  3.735790e-09 7.565619e-08 0.000000e+00
  3.837440e-09 6.803407e-08 0.000000e+00
  3.900356e-09 6.026038e-08 0.000000e+00
  3.926014e-09 5.241080e-08 0.000000e+00
  3.920676e-09 4.455160e-08 0.000000e+00
  3.893423e-09 3.673270e-08 0.000000e+00
  3.854309e-09 2.898447e-08 0.000000e+00
  3.812899e-09 2.131778e-08 0.000000e+00
  3.777270e-09 1.372635e-08 0.000000e+00
  3.753433e-09 6.190448e-09 0.000000e+00
  1.934532e-08 5.858927e-09 0.000000e+00
  1.964786e-08 1.206255e-08 0.000000e+00
  2.013089e-08 1.842207e-08 0.000000e+00
  2.076040e-08 2.500841e-08 0.000000e+00
  2.148500e-08 3.187998e-08 0.000000e+00
  2.291780e-08 4.660096e-08 0.000000e+00
  2.343403e-08 5.442506e-08 0.000000e+00
  2.368002e-08 6.246468e-08 0.000000e+00
  2.357307e-08 7.058687e-08 0.000000e+00
  2.307402e-08 7.861890e-08 0.000000e+00
  2.106989e-08 9.367431e-08 0.000000e+00
  1.982595e-08 1.004044e-07 0.000000e+00
  1.791095e-08 1.120391e-07 0.000000e+00
  1.776404e-08 1.170810e-07 0.000000e+00
  1.857296e-08 1.217847e-07 0.000000e+00
  2.076348e-08 1.262817e-07 0.000000e+00
  2.496424e-08 1.305756e-07 0.000000e+00
  3.214463e-08 1.342316e-07 0.000000e+00
  4.330174e-08 1.356431e-07 0.000000e+00
  5.772283e-08 1.319771e-07 0.000000e+00
  8.330568e-08 1.057924e-07 0.000000e+00
  8.813228e-08 8.774741e-08 0.000000e+00
  8.762985e-08 7.067332e-08 0.000000e+00
  8.414596e-08 5.624992e-08 0.000000e+00
  7.958438e-08 4.456694e-08 0.000000e+00
  7.496143e-08 3.506616e-08 0.000000e+00
  7.076659e-08 2.717677e-08 0.000000e+00
  6.722592e-08 2.044206e-08 0.000000e+00
  6.443677e-08 1.451367e-08 0.000000e+00
  6.243617e-08 9.125064e-09 0.000000e+00
  6.123495e-08 4.065014e-09 0.000000e+00
  1.978367e-09 2.639085e-09 0.000000e+00
  1.999569e-09 5.871570e-09 0.000000e+00
  2.032922e-09 9.158053e-09 0.000000e+00
  2.075390e-09 1.252288e-08 0.000000e+00
  2.122613e-09 1.598346e-08 0.000000e+00
  2.207917e-09 2.321145e-08 0.000000e+00
  2.232515e-09 2.695747e-08 0.000000e+00
  2.236513e-09 3.075488e-08 0.000000e+00
  2.215543e-09 3.456155e-08 0.000000e+00
  2.168428e-09 3.832862e-08 0.000000e+00
  2.012660e-09 4.555917e-08 0.000000e+00
  1.924334e-09 4.896251e-08 0.000000e+00
  1.812573e-09 5.539054e-08 0.000000e+00
  1.839967e-09 5.855220e-08 0.000000e+00
  1.974496e-09 6.186796e-08 0.000000e+00
  2.287538e-09 6.559763e-08 0.000000e+00
  2.919776e-09 7.017463e-08 0.000000e+00
  4.251850e-09 7.650300e-08 0.000000e+00
  7.043472e-09 8.496906e-08 0.000000e+00
  2.314111e-08 9.891756e-08 0.000000e+00
  2.052948e-07 1.186625e-07 0.000000e+00
  1.655207e-07 5.592485e-08 0.000000e+00
  1.396053e-07 3.702833e-08 0.000000e+00
  1.206240e-07 2.573432e-08 0.000000e+00
  1.064256e-07 1.860878e-08 0.000000e+00
  9.563955e-08 1.370219e-08 0.000000e+00
  8.741410e-08 1.007765e-08 0.000000e+00
  8.120536e-08 7.227109e-09 0.000000e+00
  7.666102e-08 4.854811e-09 0.000000e+00
  7.355325e-08 2.774714e-09 0.000000e+00
  7.174019e-08 8.593230e-10 0.000000e+00
  2.427288e-09 -4.844380e-09 0.000000e+00
  2.424490e-09 -8.958872e-09 0.000000e+00
  2.418648e-09 -1.306788e-08 0.000000e+00
  2.408035e-09 -1.716496e-08 0.000000e+00
  2.390304e-09 -2.123939e-08 0.000000e+00
  2.322257e-09 -2.925070e-08 0.000000e+00
  2.266578e-09 -3.313902e-08 0.000000e+00
  2.194247e-09 -3.690976e-08 0.000000e+00
  2.105690e-09 -4.053218e-08 0.000000e+00
  2.003791e-09 -4.397966e-08 0.000000e+00
  1.785982e-09 -5.029720e-08 0.000000e+00
  1.690494e-09 -5.318561e-08 0.000000e+00
  1.600803e-09 -5.866592e-08 0.000000e+00
  1.650530e-09 -6.146887e-08 0.000000e+00
  1.810452e-09 -6.455513e-08 0.000000e+00
  2.149363e-09 -6.824329e-08 0.000000e+00
  2.806220e-09 -7.309978e-08 0.000000e+00
  4.160903e-09 -8.026385e-08 0.000000e+00
  6.973181e-09 -9.368032e-08 0.000000e+00
  2.310260e-08 -1.396146e-07 0.000000e+00
  2.053298e-07 -8.555029e-08 0.000000e+00
  1.654835e-07 -6.144025e-08 0.000000e+00
  1.395521e-07 -4.113580e-08 0.000000e+00
  1.205725e-07 -2.926012e-08 0.000000e+00
  1.063813e-07 -2.168772e-08 0.000000e+00
  9.560355e-08 -1.644468e-08 0.000000e+00
  8.738579e-08 -1.256498e-08 0.000000e+00
  8.118351e-08 -9.522668e-09 0.000000e+00
  7.664417e-08 -7.010078e-09 0.000000e+00
  7.353994e-08 -4.833236e-09 0.000000e+00
  7.172897e-08 -2.859431e-09 0.000000e+00
  9.552318e-08 -8.325890e-09 0.000000e+00
  9.586459e-08 -1.527667e-08 0.000000e+00
  9.651797e-08 -2.213425e-08 0.000000e+00
  9.761983e-08 -2.887589e-08 0.000000e+00
  9.938483e-08 -3.551620e-08 0.000000e+00
  1.063904e-07 -4.894439e-08 0.000000e+00
  1.129548e-07 -5.640768e-08 0.000000e+00
  1.232685e-07 -6.564066e-08 0.000000e+00
  1.400954e-07 -7.933786e-08 0.000000e+00