# vtk DataFile Version 2.0
obtained via hydraulicmodule
ASCII
DATASET UNSTRUCTURED_GRID
POINTS 121 double
-8.00000000e-02 -8.00000000e-02  0.00000000e+00
-8.00000000e-02 -6.00000000e-02  0.00000000e+00
-8.00000000e-02 -4.00000000e-02  0.00000000e+00
-8.00000000e-02 -2.00000000e-02  0.00000000e+00
-8.00000000e-02  1.74606076e-13  0.00000000e+00
-8.00000000e-02  2.00000000e-02  0.00000000e+00
-8.00000000e-02  4.00000000e-02  0.00000000e+00
-8.00000000e-02  6.00000000e-02  0.00000000e+00
-8.00000000e-02  8.00000000e-02  0.00000000e+00
-6.00000000e-02 -8.00000000e-02  0.00000000e+00
-6.00000000e-02 -6.00000000e-02  0.00000000e+00
-6.00000000e-02 -4.00000000e-02  0.00000000e+00
-6.00000000e-02 -2.00000000e-02  0.00000000e+00
-6.00000000e-02  1.15933304e-13  0.00000000e+00
-6.00000000e-02  2.00000000e-02  0.00000000e+00
-6.00000000e-02  4.00000000e-02  0.00000000e+00
-6.00000000e-02  6.00000000e-02  0.00000000e+00
-6.00000000e-02  8.00000000e-02  0.00000000e+00
-4.00000000e-02 -8.00000000e-02  0.00000000e+00
-4.00000000e-02 -6.00000000e-02  0.00000000e+00
-4.00000000e-02 -4.00000000e-02  0.00000000e+00
-4.00000000e-02 -2.00000000e-02  0.00000000e+00
-4.00000000e-02  7.10377064e-14  0.00000000e+00
-4.00000000e-02  2.00000000e-02  0.00000000e+00
-4.00000000e-02  4.00000000e-02  0.00000000e+00
-4.00000000e-02  6.00000000e-02  0.00000000e+00
-4.00000000e-02  8.00000000e-02  0.00000000e+00
-2.00000000e-02 -8.00000000e-02  0.00000000e+00
-2.00000000e-02 -6.00000000e-02  0.00000000e+00
-2.00000000e-02 -4.00000000e-02  0.00000000e+00
-2.00000000e-02 -2.00000000e-02  0.00000000e+00
-2.00000000e-02  3.37625741e-14  0.00000000e+00
-2.00000000e-02  2.00000000e-02  0.00000000e+00
-2.00000000e-02  4.00000000e-02  0.00000000e+00
-2.00000000e-02  6.00000000e-02  0.00000000e+00
-2.00000000e-02  8.00000000e-02  0.00000000e+00
-1.74606100e-13 -8.00000000e-02  0.00000000e+00
-1.15933402e-13 -6.00000000e-02  0.00000000e+00
-7.10380710e-14 -4.00000000e-02  0.00000000e+00
-3.37639352e-14 -2.00000000e-02  0.00000000e+00
 1.79126971e-17 -1.95228272e-17  0.00000000e+00
 3.37974220e-14  2.00000000e-02  0.00000000e+00
 7.10668041e-14  4.00000000e-02  0.00000000e+00
 1.15955867e-13  6.00000000e-02  0.00000000e+00
 1.74618655e-13  8.00000000e-02  0.00000000e+00
 2.00000000e-02 -8.00000000e-02  0.00000000e+00
 2.00000000e-02 -6.00000000e-02  0.00000000e+00
 2.00000000e-02 -4.00000000e-02  0.00000000e+00
 2.00000000e-02 -2.00000000e-02  0.00000000e+00
 2.00000000e-02 -3.37990321e-14  0.00000000e+00
 2.00000000e-02  2.00000000e-02  0.00000000e+00
 2.00000000e-02  4.00000000e-02  0.00000000e+00
 2.00000000e-02  6.00000000e-02  0.00000000e+00
 2.00000000e-02  8.00000000e-02  0.00000000e+00
 4.00000000e-02 -8.00000000e-02  0.00000000e+00
 4.00000000e-02 -6.00000000e-02  0.00000000e+00
 4.00000000e-02 -4.00000000e-02  0.00000000e+00
 4.00000000e-02 -2.00000000e-02  0.00000000e+00
 4.00000000e-02 -7.10681647e-14  0.00000000e+00
 4.00000000e-02  2.00000000e-02  0.00000000e+00
 4.00000000e-02  4.00000000e-02  0.00000000e+00
 4.00000000e-02  6.00000000e-02  0.00000000e+00
 4.00000000e-02  8.00000000e-02  0.00000000e+00
 6.00000000e-02 -8.00000000e-02  0.00000000e+00
 6.00000000e-02 -6.00000000e-02  0.00000000e+00
 6.00000000e-02 -4.00000000e-02  0.00000000e+00
 6.00000000e-02 -2.00000000e-02  0.00000000e+00
 6.00000000e-02 -1.15956230e-13  0.00000000e+00
 6.00000000e-02  2.00000000e-02  0.00000000e+00
 6.00000000e-02  4.00000000e-02  0.00000000e+00
 6.00000000e-02  6.00000000e-02  0.00000000e+00
 6.00000000e-02  8.00000000e-02  0.00000000e+00
 8.00000000e-02 -8.00000000e-02  0.00000000e+00
 8.00000000e-02 -6.00000000e-02  0.00000000e+00
 8.00000000e-02 -4.00000000e-02  0.00000000e+00
 8.00000000e-02 -2.00000000e-02  0.00000000e+00
 8.00000000e-02 -1.74618746e-13  0.00000000e+00
 8.00000000e-02  2.00000000e-02  0.00000000e+00
 8.00000000e-02  4.00000000e-02  0.00000000e+00
 8.00000000e-02  6.00000000e-02  0.00000000e+00
 8.00000000e-02  8.00000000e-02  0.00000000e+00
-1.00000000e-01 -1.00000000e-01  0.00000000e+00
-8.00000000e-02 -1.00000000e-01  0.00000000e+00
-6.00000000e-02 -1.00000000e-01  0.00000000e+00
-4.00000000e-02 -1.00000000e-01  0.00000000e+00
-2.00000000e-02 -1.00000000e-01  0.00000000e+00
-2.60214071e-13 -1.00000000e-01  0.00000000e+00
 2.00000000e-02 -1.00000000e-01  0.00000000e+00
 4.00000000e-02 -1.00000000e-01  0.00000000e+00
 6.00000000e-02 -1.00000000e-01  0.00000000e+00
 8.00000000e-02 -1.00000000e-01  0.00000000e+00
 1.00000000e-01 -1.00000000e-01  0.00000000e+00
 1.00000000e-01 -8.00000000e-02  0.00000000e+00
 1.00000000e-01 -6.00000000e-02  0.00000000e+00
 1.00000000e-01 -4.00000000e-02  0.00000000e+00
 1.00000000e-01 -2.00000000e-02  0.00000000e+00
 1.00000000e-01 -2.60214071e-13  0.00000000e+00
 1.00000000e-01  2.00000000e-02  0.00000000e+00
 1.00000000e-01  4.00000000e-02  0.00000000e+00
 1.00000000e-01  6.00000000e-02  0.00000000e+00
 1.00000000e-01  8.00000000e-02  0.00000000e+00
 1.00000000e-01  1.00000000e-01  0.00000000e+00
 8.00000000e-02  1.00000000e-01  0.00000000e+00
 6.00000000e-02  1.00000000e-01  0.00000000e+00
 4.00000000e-02  1.00000000e-01  0.00000000e+00
 2.00000000e-02  1.00000000e-01  0.00000000e+00
 2.60214071e-13  1.00000000e-01  0.00000000e+00
-2.00000000e-02  1.00000000e-01  0.00000000e+00
-4.00000000e-02  1.00000000e-01  0.00000000e+00
-6.00000000e-02  1.00000000e-01  0.00000000e+00
-8.00000000e-02  1.00000000e-01  0.00000000e+00
-1.00000000e-01  1.00000000e-01  0.00000000e+00
-1.00000000e-01  8.00000000e-02  0.00000000e+00
-1.00000000e-01  6.00000000e-02  0.00000000e+00
-1.00000000e-01  4.00000000e-02  0.00000000e+00
-1.00000000e-01  2.00000000e-02  0.00000000e+00
-1.00000000e-01  2.60214071e-13  0.00000000e+00
-1.00000000e-01 -2.00000000e-02  0.00000000e+00
-1.00000000e-01 -4.00000000e-02  0.00000000e+00
-1.00000000e-01 -6.00000000e-02  0.00000000e+00
-1.00000000e-01 -8.00000000e-02  0.00000000e+00
CELLS 140 620
2 101 102
2 102 103
2 103 104
2 104 105
2 105 106
2 106 107
2 107 108
2 108 109
2 109 110
2 110 111
2 81 82
2 82 83
2 83 84
2 84 85
2 85 86
2 86 87
2 87 88
2 88 89
2 89 90
2 90 91
2 111 112
2 112 113
2 113 114
2 114 115
2 115 116
2 116 117
2 117 118
2 118 119
2 119 120
2 120 81
4 81 82 0 120
4 120 0 1 119
4 119 1 2 118
4 118 2 3 117
4 117 3 4 116
4 116 4 5 115
4 115 5 6 114
4 114 6 7 113
4 113 7 8 112
4 112 8 110 111
4 82 83 9 0
4 0 9 10 1
4 1 10 11 2
4 2 11 12 3
4 3 12 13 4
4 4 13 14 5
4 5 14 15 6
4 6 15 16 7
4 7 16 17 8
4 8 17 109 110
4 83 84 18 9
4 9 18 19 10
4 10 19 20 11
4 11 20 21 12
4 12 21 22 13
4 13 22 23 14
4 14 23 24 15
4 15 24 25 16
4 16 25 26 17
4 17 26 108 109
4 84 85 27 18
4 18 27 28 19
4 19 28 29 20
4 20 29 30 21
4 21 30 31 22
4 22 31 32 23
4 23 32 33 24
4 24 33 34 25
4 25 34 35 26
4 26 35 107 108
4 85 86 36 27
4 27 36 37 28
4 28 37 38 29
4 29 38 39 30
4 30 39 40 31
4 31 40 41 32
4 32 41 42 33
4 33 42 43 34
4 34 43 44 35
4 35 44 106 107
4 86 87 45 36
4 36 45 46 37
4 37 46 47 38
4 38 47 48 39
4 39 48 49 40
4 40 49 50 41
4 41 50 51 42
4 42 51 52 43
4 43 52 53 44
4 44 53 105 106
4 87 88 54 45
4 45 54 55 46
4 46 55 56 47
4 47 56 57 48
4 48 57 58 49
4 49 58 59 50
4 50 59 60 51
4 51 60 61 52
4 52 61 62 53
4 53 62 104 105
4 88 89 63 54
4 54 63 64 55
4 55 64 65 56
4 56 65 66 57
4 57 66 67 58
4 58 67 68 59
4 59 68 69 60
4 60 69 70 61
4 61 70 71 62
4 62 71 103 104
4 89 90 72 63
4 63 72 73 64
4 64 73 74 65
4 65 74 75 66
4 66 75 76 67
4 67 76 77 68
4 68 77 78 69
4 69 78 79 70
4 70 79 80 71
4 71 80 102 103
4 90 91 92 72
4 72 92 93 73
4 73 93 94 74
4 74 94 95 75
4 75 95 96 76
4 76 96 97 77
4 77 97 98 78
4 78 98 99 79
4 79 99 100 80
4 80 100 101 102
2 91 92
2 92 93
2 93 94
2 94 95
2 95 96
2 96 97
2 97 98
2 98 99
2 99 100
2 100 101
CELL_TYPES 140
3
3
3
3
3
3
3
3
3
3
3
3
3
3
3
3
3
3
3
3
3
3
3
3
3
3
3
3
3
3
9
9
9
9
9
9
9
9
9
9
9
9
9
9
9
9
9
9
9
9
9
9
9
9
9
9
9
9
9
9
9
9
9
9
9
9
9
9
9
9
9
9
9
9
9
9
9
9
9
9
9
9
9
9
9
9
9
9
9
9
9
9
9
9
9
9
9
9
9
9
9
9
9
9
9
9
9
9
9
9
9
9
9
9
9
9
9
9
9
9
9
9
9
9
9
9
9
9
9
9
3
3
3
3
3
3
3
3
3
3
POINT_DATA 121
VECTORS vectors float
 4.500000e+01 3.950541e-14 0.000000e+00
  4.500000e+01 1.131373e-12 0.000000e+00
  4.500000e+01 2.683730e-12 0.000000e+00
  4.500000e+01 -1.149180e-12 0.000000e+00
  4.500000e+01 -3.974945e-12 0.000000e+00
  4.500000e+01 -9.843348e-13 0.000000e+00
  4.500000e+01 2.642461e-12 0.000000e+00
  4.500000e+01 1.296729e-12 0.000000e+00
  4.500000e+01 -2.240689e-13 0.000000e+00
  4.500000e+01 2.481427e-12 0.000000e+00
  4.500000e+01 1.060237e-11 0.000000e+00
  4.500000e+01 -1.649192e-12 0.000000e+00
  4.500000e+01 -1.490135e-12 0.000000e+00
  4.500000e+01 -1.081000e-11 0.000000e+00
  4.500000e+01 -1.284895e-12 0.000000e+00
  4.500000e+01 -1.515383e-12 0.000000e+00
  4.500000e+01 1.050446e-11 0.000000e+00
  4.500000e+01 2.534003e-12 0.000000e+00
  4.500000e+01 6.128151e-12 0.000000e+00
  4.500000e+01 -1.503296e-12 0.000000e+00
  4.500000e+01 -1.686910e-12 0.000000e+00
  4.500000e+01 -1.008384e-11 0.000000e+00
  4.500000e+01 1.663966e-11 0.000000e+00
  4.500000e+01 -1.005508e-11 0.000000e+00
  4.500000e+01 -1.669364e-12 0.000000e+00
  4.500000e+01 -1.607501e-12 0.000000e+00
  4.500000e+01 6.090819e-12 0.000000e+00
  4.500000e+01 2.330963e-12 0.000000e+00
  4.500000e+01 -9.022147e-12 0.000000e+00
  4.500000e+01 -1.026853e-11 0.000000e+00
  4.500000e+01 1.866168e-11 0.000000e+00
  4.500000e+01 -3.613920e-11 0.000000e+00
  4.500000e+01 1.869964e-11 0.000000e+00
  4.500000e+01 -1.013631e-11 0.000000e+00
  4.500000e+01 -9.285931e-12 0.000000e+00
  4.500000e+01 2.414669e-12 0.000000e+00
  4.500000e+01 -3.919435e-11 0.000000e+00
  4.500000e+01 -9.001203e-12 0.000000e+00
  4.500000e+01 1.269133e-11 0.000000e+00
  4.500000e+01 -3.615493e-11 0.000000e+00
  4.500000e+01 4.939382e-11 0.000000e+00
  4.500000e+01 -3.618309e-11 0.000000e+00
  4.500000e+01 1.269508e-11 0.000000e+00
  4.500000e+01 -8.886956e-12 0.000000e+00
  4.500000e+01 -3.899941e-11 0.000000e+00
  4.500000e+01 2.380199e-12 0.000000e+00
  4.500000e+01 -9.141182e-12 0.000000e+00
  4.500000e+01 -1.019910e-11 0.000000e+00
  4.500000e+01 1.858509e-11 0.000000e+00
  4.500000e+01 -3.618491e-11 0.000000e+00
  4.500000e+01 1.873843e-11 0.000000e+00
  4.500000e+01 -1.028421e-11 0.000000e+00
  4.500000e+01 -9.091293e-12 0.000000e+00
  4.500000e+01 2.455968e-12 0.000000e+00
  4.500000e+01 6.060685e-12 0.000000e+00
  4.500000e+01 -1.544034e-12 0.000000e+00
  4.500000e+01 -1.789222e-12 0.000000e+00
  4.500000e+01 -1.011165e-11 0.000000e+00
  4.500000e+01 1.659244e-11 0.000000e+00
  4.500000e+01 -1.013764e-11 0.000000e+00
  4.500000e+01 -1.670513e-12 0.000000e+00
  4.500000e+01 -1.452218e-12 0.000000e+00
  4.500000e+01 6.159390e-12 0.000000e+00
  4.500000e+01 2.534712e-12 0.000000e+00
  4.500000e+01 1.045403e-11 0.000000e+00
  4.500000e+01 -1.554662e-12 0.000000e+00
  4.500000e+01 -1.450720e-12 0.000000e+00
  4.500000e+01 -1.094603e-11 0.000000e+00
  4.500000e+01 -1.473666e-12 0.000000e+00
  4.500000e+01 -1.558749e-12 0.000000e+00
  4.500000e+01 1.055864e-11 0.000000e+00
  4.500000e+01 2.659924e-12 0.000000e+00
  4.500000e+01 -1.328200e-13 0.000000e+00
  4.500000e+01 1.283141e-12 0.000000e+00
  4.500000e+01 2.620406e-12 0.000000e+00
  4.500000e+01 -1.029923e-12 0.000000e+00
  4.500000e+01 -4.102246e-12 0.000000e+00
  4.500000e+01 -9.880174e-13 0.000000e+00
  4.500000e+01 2.651509e-12 0.000000e+00
  4.500000e+01 1.305798e-12 0.000000e+00
  4.500000e+01 -1.246193e-14 0.000000e+00
  4.500000e+01 1.239194e-11 0.000000e+00
  4.500000e+01 4.262344e-13 0.000000e+00
  4.500000e+01 -9.237213e-12 0.000000e+00
  4.500000e+01 -2.968696e-12 0.000000e+00
  4.500000e+01 3.323127e-11 0.000000e+00
  4.500000e+01 -7.745776e-11 0.000000e+00
  4.500000e+01 3.314870e-11 0.000000e+00
  4.500000e+01 -3.041104e-12 0.000000e+00
  4.500000e+01 -9.478504e-12 0.000000e+00
  4.500000e+01 2.483265e-13 0.000000e+00
  4.500000e+01 1.232511e-11 0.000000e+00
  4.500000e+01 -4.802678e-13 0.000000e+00
  4.500000e+01 -1.145754e-11 0.000000e+00
  4.500000e+01 -8.095139e-12 0.000000e+00
  4.500000e+01 9.803069e-12 0.000000e+00
  4.500000e+01 5.455693e-12 0.000000e+00
  4.500000e+01 9.830423e-12 0.000000e+00
  4.500000e+01 -8.102461e-12 0.000000e+00
  4.500000e+01 -1.138002e-11 0.000000e+00
  4.500000e+01 -4.657673e-13 0.000000e+00
  4.500000e+01 1.241453e-11 0.000000e+00
  4.500000e+01 2.834169e-13 0.000000e+00
  4.500000e+01 -9.372283e-12 0.000000e+00
  4.500000e+01 -3.008064e-12 0.000000e+00
  4.500000e+01 3.346251e-11 0.000000e+00
  4.500000e+01 -7.732605e-11 0.000000e+00
  4.500000e+01 3.333849e-11 0.000000e+00
  4.500000e+01 -2.867185e-12 0.000000e+00
  4.500000e+01 -9.544786e-12 0.000000e+00
  4.500000e+01 1.185877e-13 0.000000e+00
  4.500000e+01 1.233518e-11 0.000000e+00
  4.500000e+01 -4.851836e-13 0.000000e+00
  4.500000e+01 -1.141539e-11 0.000000e+00
  4.500000e+01 -8.047350e-12 0.000000e+00
  4.500000e+01 9.807277e-12 0.000000e+00
  4.500000e+01 5.399429e-12 0.000000e+00
  4.500000e+01 9.781832e-12 0.000000e+00
  4.500000e+01 -8.107304e-12 0.000000e+00
  4.500000e+01 -1.137273e-11 0.000000e+00
  4.500000e+01 -4.514367e-13 0.000000e+00
 SCALARS charge double
LOOKUP_TABLE default
 8.1000000000e+00
  8.1000000000e+00
  8.1000000000e+00
  8.1000000000e+00
  8.1000000000e+00
  8.1000000000e+00
  8.1000000000e+00
  8.1000000000e+00
  8.1000000000e+00
  7.2000000000e+00
  7.2000000000e+00
  7.2000000000e+00
  7.2000000000e+00
  7.2000000000e+00
  7.2000000000e+00
  7.2000000000e+00
  7.2000000000e+00
  7.2000000000e+00
  6.3000000000e+00
  6.3000000000e+00
  6.3000000000e+00
  6.3000000000e+00
  6.3000000000e+00
  6.3000000000e+00
  6.3000000000e+00
  6.3000000000e+00
  6.3000000000e+00
  5.4000000000e+00
  5.4000000000e+00
  5.4000000000e+00
  5.4000000000e+00
  5.4000000000e+00
  5.4000000000e+00
  5.4000000000e+00
  5.4000000000e+00
  5.4000000000e+00
  4.5000000000e+00
  4.5000000000e+00
  4.5000000000e+00
  4.5000000000e+00
  4.5000000000e+00
  4.5000000000e+00
  4.5000000000e+00
  4.5000000000e+00
  4.5000000000e+00
  3.6000000000e+00
  3.6000000000e+00
  3.6000000000e+00
  3.6000000000e+00
  3.6000000000e+00
  3.6000000000e+00
  3.6000000000e+00
  3.6000000000e+00
  3.6000000000e+00
  2.7000000000e+00
  2.7000000000e+00
  2.7000000000e+00
  2.7000000000e+00
  2.7000000000e+00
  2.7000000000e+00
  2.7000000000e+00
  2.7000000000e+00
  2.7000000000e+00
  1.8000000000e+00
  1.8000000000e+00
  1.8000000000e+00
  1.8000000000e+00
  1.8000000000e+00
  1.8000000000e+00
  1.8000000000e+00
  1.8000000000e+00
  1.8000000000e+00
  9.0000000000e-01
  9.0000000000e-01
  9.0000000000e-01
  9.0000000000e-01
  9.0000000000e-01
  9.0000000000e-01
  9.0000000000e-01
  9.0000000000e-01
  9.0000000000e-01
  9.0000000000e+00
  8.1000000000e+00
  7.2000000000e+00
  6.3000000000e+00
  5.4000000000e+00
  4.5000000000e+00
  3.6000000000e+00
  2.7000000000e+00
  1.8000000000e+00
  9.0000000000e-01
  0.0000000000e+00
  0.0000000000e+00
  0.0000000000e+00
  0.0000000000e+00
  0.0000000000e+00
  0.0000000000e+00
  0.0000000000e+00
  0.0000000000e+00
  0.0000000000e+00
  0.0000000000e+00
  0.0000000000e+00
  9.0000000000e-01
  1.8000000000e+00
  2.7000000000e+00
  3.6000000000e+00
  4.5000000000e+00
  5.4000000000e+00
  6.3000000000e+00
  7.2000000000e+00
  8.1000000000e+00
  9.0000000000e+00
  9.0000000000e+00
  9.0000000000e+00
  9.0000000000e+00
  9.0000000000e+00
  9.0000000000e+00
  9.0000000000e+00
  9.0000000000e+00
  9.0000000000e+00
  9.0000000000e+00
 