# vtk DataFile Version 2.0
vtk output
ASCII
DATASET UNSTRUCTURED_GRID
POINTS 82 float 
 2.00000000e-03  0.00000000e+00  0.00000000e+00
 2.00000000e-03  1.00000000e-02  0.00000000e+00
 4.00000000e-03  0.00000000e+00  0.00000000e+00
 4.00000000e-03  1.00000000e-02  0.00000000e+00
 6.00000000e-03  0.00000000e+00  0.00000000e+00
 6.00000000e-03  1.00000000e-02  0.00000000e+00
 8.00000000e-03  0.00000000e+00  0.00000000e+00
 8.00000000e-03  1.00000000e-02  0.00000000e+00
 1.00000000e-02  0.00000000e+00  0.00000000e+00
 1.00000000e-02  1.00000000e-02  0.00000000e+00
 1.20000000e-02  0.00000000e+00  0.00000000e+00
 1.20000000e-02  1.00000000e-02  0.00000000e+00
 1.40000000e-02  0.00000000e+00  0.00000000e+00
 1.40000000e-02  1.00000000e-02  0.00000000e+00
 1.60000000e-02  0.00000000e+00  0.00000000e+00
 1.60000000e-02  1.00000000e-02  0.00000000e+00
 1.80000000e-02  0.00000000e+00  0.00000000e+00
 1.80000000e-02  1.00000000e-02  0.00000000e+00
 2.00000000e-02  0.00000000e+00  0.00000000e+00
 2.00000000e-02  1.00000000e-02  0.00000000e+00
 2.20000000e-02  0.00000000e+00  0.00000000e+00
 2.20000000e-02  1.00000000e-02  0.00000000e+00
 2.40000000e-02  0.00000000e+00  0.00000000e+00
 2.40000000e-02  1.00000000e-02  0.00000000e+00
 2.60000000e-02  0.00000000e+00  0.00000000e+00
 2.60000000e-02  1.00000000e-02  0.00000000e+00
 2.80000000e-02  0.00000000e+00  0.00000000e+00
 2.80000000e-02  1.00000000e-02  0.00000000e+00
 3.00000000e-02  0.00000000e+00  0.00000000e+00
 3.00000000e-02  1.00000000e-02  0.00000000e+00
 3.20000000e-02  0.00000000e+00  0.00000000e+00
 3.20000000e-02  1.00000000e-02  0.00000000e+00
 3.40000000e-02  0.00000000e+00  0.00000000e+00
 3.40000000e-02  1.00000000e-02  0.00000000e+00
 3.60000000e-02  0.00000000e+00  0.00000000e+00
 3.60000000e-02  1.00000000e-02  0.00000000e+00
 3.80000000e-02  0.00000000e+00  0.00000000e+00
 3.80000000e-02  1.00000000e-02  0.00000000e+00
 4.00000000e-02  0.00000000e+00  0.00000000e+00
 4.00000000e-02  1.00000000e-02  0.00000000e+00
 4.20000000e-02  0.00000000e+00  0.00000000e+00
 4.20000000e-02  1.00000000e-02  0.00000000e+00
 4.40000000e-02  0.00000000e+00  0.00000000e+00
 4.40000000e-02  1.00000000e-02  0.00000000e+00
 4.60000000e-02  0.00000000e+00  0.00000000e+00
 4.60000000e-02  1.00000000e-02  0.00000000e+00
 4.80000000e-02  0.00000000e+00  0.00000000e+00
 4.80000000e-02  1.00000000e-02  0.00000000e+00
 5.00000000e-02  0.00000000e+00  0.00000000e+00
 5.00000000e-02  1.00000000e-02  0.00000000e+00
 5.20000000e-02  0.00000000e+00  0.00000000e+00
 5.20000000e-02  1.00000000e-02  0.00000000e+00
 5.40000000e-02  0.00000000e+00  0.00000000e+00
 5.40000000e-02  1.00000000e-02  0.00000000e+00
 5.60000000e-02  0.00000000e+00  0.00000000e+00
 5.60000000e-02  1.00000000e-02  0.00000000e+00
 5.80000000e-02  0.00000000e+00  0.00000000e+00
 5.80000000e-02  1.00000000e-02  0.00000000e+00
 6.00000000e-02  0.00000000e+00  0.00000000e+00
 6.00000000e-02  1.00000000e-02  0.00000000e+00
 6.20000000e-02  0.00000000e+00  0.00000000e+00
 6.20000000e-02  1.00000000e-02  0.00000000e+00
 6.40000000e-02  0.00000000e+00  0.00000000e+00
 6.40000000e-02  1.00000000e-02  0.00000000e+00
 6.60000000e-02  0.00000000e+00  0.00000000e+00
 6.60000000e-02  1.00000000e-02  0.00000000e+00
 6.80000000e-02  0.00000000e+00  0.00000000e+00
 6.80000000e-02  1.00000000e-02  0.00000000e+00
 7.00000000e-02  0.00000000e+00  0.00000000e+00
 7.00000000e-02  1.00000000e-02  0.00000000e+00
 7.20000000e-02  0.00000000e+00  0.00000000e+00
 7.20000000e-02  1.00000000e-02  0.00000000e+00
 7.40000000e-02  0.00000000e+00  0.00000000e+00
 7.40000000e-02  1.00000000e-02  0.00000000e+00
 7.60000000e-02  0.00000000e+00  0.00000000e+00
 7.60000000e-02  1.00000000e-02  0.00000000e+00
 7.80000000e-02  0.00000000e+00  0.00000000e+00
 7.80000000e-02  1.00000000e-02  0.00000000e+00
 8.00000000e-02  0.00000000e+00  0.00000000e+00
 8.00000000e-02  1.00000000e-02  0.00000000e+00
 0.00000000e+00  1.00000000e-02  0.00000000e+00
 0.00000000e+00  0.00000000e+00  0.00000000e+00
CELLS 41 203
4 81 0 1 80
4 0 2 3 1
4 2 4 5 3
4 4 6 7 5
4 6 8 9 7
4 8 10 11 9
4 10 12 13 11
4 12 14 15 13
4 14 16 17 15
4 16 18 19 17
4 18 20 21 19
4 20 22 23 21
4 22 24 25 23
4 24 26 27 25
4 26 28 29 27
4 28 30 31 29
4 30 32 33 31
4 32 34 35 33
4 34 36 37 35
4 36 38 39 37
4 38 40 41 39
4 40 42 43 41
4 42 44 45 43
4 44 46 47 45
4 46 48 49 47
4 48 50 51 49
4 50 52 53 51
4 52 54 55 53
4 54 56 57 55
4 56 58 59 57
4 58 60 61 59
4 60 62 63 61
4 62 64 65 63
4 64 66 67 65
4 66 68 69 67
4 68 70 71 69
4 70 72 73 71
4 72 74 75 73
4 74 76 77 75
4 76 78 79 77
2 80 81
CELL_TYPES 41
9
9
9
9
9
9
9
9
9
9
9
9
9
9
9
9
9
9
9
9
9
9
9
9
9
9
9
9
9
9
9
9
9
9
9
9
9
9
9
9
3
CELL_DATA 41
SCALARS material_values float

LOOKUP_TABLE default

0
0
0
0
0
0
0
0
0
0
0
0
0
0
0
0
0
0
0
0
0
0
0
0
0
0
0
0
0
0
0
0
0
0
0
0
0
0
0
0
0
