# vtk DataFile Version 2.0
obtained with chemicaltransportmodule
ASCII 
DATASET UNSTRUCTURED_GRID 
POINTS  302 double
 1.00000000e-03  0.00000000e+00  0.00000000e+00
 1.00000000e-03  1.00000000e-02  0.00000000e+00
 2.00000000e-03  0.00000000e+00  0.00000000e+00
 2.00000000e-03  1.00000000e-02  0.00000000e+00
 3.00000000e-03  0.00000000e+00  0.00000000e+00
 3.00000000e-03  1.00000000e-02  0.00000000e+00
 4.00000000e-03  0.00000000e+00  0.00000000e+00
 4.00000000e-03  1.00000000e-02  0.00000000e+00
 5.00000000e-03  0.00000000e+00  0.00000000e+00
 5.00000000e-03  1.00000000e-02  0.00000000e+00
 6.00000000e-03  0.00000000e+00  0.00000000e+00
 6.00000000e-03  1.00000000e-02  0.00000000e+00
 7.00000000e-03  0.00000000e+00  0.00000000e+00
 7.00000000e-03  1.00000000e-02  0.00000000e+00
 8.00000000e-03  0.00000000e+00  0.00000000e+00
 8.00000000e-03  1.00000000e-02  0.00000000e+00
 9.00000000e-03  0.00000000e+00  0.00000000e+00
 9.00000000e-03  1.00000000e-02  0.00000000e+00
 1.00000000e-02  0.00000000e+00  0.00000000e+00
 1.00000000e-02  1.00000000e-02  0.00000000e+00
 1.10000000e-02  0.00000000e+00  0.00000000e+00
 1.10000000e-02  1.00000000e-02  0.00000000e+00
 1.20000000e-02  0.00000000e+00  0.00000000e+00
 1.20000000e-02  1.00000000e-02  0.00000000e+00
 1.30000000e-02  0.00000000e+00  0.00000000e+00
 1.30000000e-02  1.00000000e-02  0.00000000e+00
 1.40000000e-02  0.00000000e+00  0.00000000e+00
 1.40000000e-02  1.00000000e-02  0.00000000e+00
 1.50000000e-02  0.00000000e+00  0.00000000e+00
 1.50000000e-02  1.00000000e-02  0.00000000e+00
 1.60000000e-02  0.00000000e+00  0.00000000e+00
 1.60000000e-02  1.00000000e-02  0.00000000e+00
 1.70000000e-02  0.00000000e+00  0.00000000e+00
 1.70000000e-02  1.00000000e-02  0.00000000e+00
 1.80000000e-02  0.00000000e+00  0.00000000e+00
 1.80000000e-02  1.00000000e-02  0.00000000e+00
 1.90000000e-02  0.00000000e+00  0.00000000e+00
 1.90000000e-02  1.00000000e-02  0.00000000e+00
 2.00000000e-02  0.00000000e+00  0.00000000e+00
 2.00000000e-02  1.00000000e-02  0.00000000e+00
 2.10000000e-02  0.00000000e+00  0.00000000e+00
 2.10000000e-02  1.00000000e-02  0.00000000e+00
 2.20000000e-02  0.00000000e+00  0.00000000e+00
 2.20000000e-02  1.00000000e-02  0.00000000e+00
 2.30000000e-02  0.00000000e+00  0.00000000e+00
 2.30000000e-02  1.00000000e-02  0.00000000e+00
 2.40000000e-02  0.00000000e+00  0.00000000e+00
 2.40000000e-02  1.00000000e-02  0.00000000e+00
 2.50000000e-02  0.00000000e+00  0.00000000e+00
 2.50000000e-02  1.00000000e-02  0.00000000e+00
 2.60000000e-02  0.00000000e+00  0.00000000e+00
 2.60000000e-02  1.00000000e-02  0.00000000e+00
 2.70000000e-02  0.00000000e+00  0.00000000e+00
 2.70000000e-02  1.00000000e-02  0.00000000e+00
 2.80000000e-02  0.00000000e+00  0.00000000e+00
 2.80000000e-02  1.00000000e-02  0.00000000e+00
 2.90000000e-02  0.00000000e+00  0.00000000e+00
 2.90000000e-02  1.00000000e-02  0.00000000e+00
 3.00000000e-02  0.00000000e+00  0.00000000e+00
 3.00000000e-02  1.00000000e-02  0.00000000e+00
 3.10000000e-02  0.00000000e+00  0.00000000e+00
 3.10000000e-02  1.00000000e-02  0.00000000e+00
 3.20000000e-02  0.00000000e+00  0.00000000e+00
 3.20000000e-02  1.00000000e-02  0.00000000e+00
 3.30000000e-02  0.00000000e+00  0.00000000e+00
 3.30000000e-02  1.00000000e-02  0.00000000e+00
 3.40000000e-02  0.00000000e+00  0.00000000e+00
 3.40000000e-02  1.00000000e-02  0.00000000e+00
 3.50000000e-02  0.00000000e+00  0.00000000e+00
 3.50000000e-02  1.00000000e-02  0.00000000e+00
 3.60000000e-02  0.00000000e+00  0.00000000e+00
 3.60000000e-02  1.00000000e-02  0.00000000e+00
 3.70000000e-02  0.00000000e+00  0.00000000e+00
 3.70000000e-02  1.00000000e-02  0.00000000e+00
 3.80000000e-02  0.00000000e+00  0.00000000e+00
 3.80000000e-02  1.00000000e-02  0.00000000e+00
 3.90000000e-02  0.00000000e+00  0.00000000e+00
 3.90000000e-02  1.00000000e-02  0.00000000e+00
 4.00000000e-02  0.00000000e+00  0.00000000e+00
 4.00000000e-02  1.00000000e-02  0.00000000e+00
 4.10000000e-02  0.00000000e+00  0.00000000e+00
 4.10000000e-02  1.00000000e-02  0.00000000e+00
 4.20000000e-02  0.00000000e+00  0.00000000e+00
 4.20000000e-02  1.00000000e-02  0.00000000e+00
 4.30000000e-02  0.00000000e+00  0.00000000e+00
 4.30000000e-02  1.00000000e-02  0.00000000e+00
 4.40000000e-02  0.00000000e+00  0.00000000e+00
 4.40000000e-02  1.00000000e-02  0.00000000e+00
 4.50000000e-02  0.00000000e+00  0.00000000e+00
 4.50000000e-02  1.00000000e-02  0.00000000e+00
 4.60000000e-02  0.00000000e+00  0.00000000e+00
 4.60000000e-02  1.00000000e-02  0.00000000e+00
 4.70000000e-02  0.00000000e+00  0.00000000e+00
 4.70000000e-02  1.00000000e-02  0.00000000e+00
 4.80000000e-02  0.00000000e+00  0.00000000e+00
 4.80000000e-02  1.00000000e-02  0.00000000e+00
 4.90000000e-02  0.00000000e+00  0.00000000e+00
 4.90000000e-02  1.00000000e-02  0.00000000e+00
 5.00000000e-02  0.00000000e+00  0.00000000e+00
 5.00000000e-02  1.00000000e-02  0.00000000e+00
 5.10000000e-02  0.00000000e+00  0.00000000e+00
 5.10000000e-02  1.00000000e-02  0.00000000e+00
 5.20000000e-02  0.00000000e+00  0.00000000e+00
 5.20000000e-02  1.00000000e-02  0.00000000e+00
 5.30000000e-02  0.00000000e+00  0.00000000e+00
 5.30000000e-02  1.00000000e-02  0.00000000e+00
 5.40000000e-02  0.00000000e+00  0.00000000e+00
 5.40000000e-02  1.00000000e-02  0.00000000e+00
 5.50000000e-02  0.00000000e+00  0.00000000e+00
 5.50000000e-02  1.00000000e-02  0.00000000e+00
 5.60000000e-02  0.00000000e+00  0.00000000e+00
 5.60000000e-02  1.00000000e-02  0.00000000e+00
 5.70000000e-02  0.00000000e+00  0.00000000e+00
 5.70000000e-02  1.00000000e-02  0.00000000e+00
 5.80000000e-02  0.00000000e+00  0.00000000e+00
 5.80000000e-02  1.00000000e-02  0.00000000e+00
 5.90000000e-02  0.00000000e+00  0.00000000e+00
 5.90000000e-02  1.00000000e-02  0.00000000e+00
 6.00000000e-02  0.00000000e+00  0.00000000e+00
 6.00000000e-02  1.00000000e-02  0.00000000e+00
 6.10000000e-02  0.00000000e+00  0.00000000e+00
 6.10000000e-02  1.00000000e-02  0.00000000e+00
 6.20000000e-02  0.00000000e+00  0.00000000e+00
 6.20000000e-02  1.00000000e-02  0.00000000e+00
 6.30000000e-02  0.00000000e+00  0.00000000e+00
 6.30000000e-02  1.00000000e-02  0.00000000e+00
 6.40000000e-02  0.00000000e+00  0.00000000e+00
 6.40000000e-02  1.00000000e-02  0.00000000e+00
 6.50000000e-02  0.00000000e+00  0.00000000e+00
 6.50000000e-02  1.00000000e-02  0.00000000e+00
 6.60000000e-02  0.00000000e+00  0.00000000e+00
 6.60000000e-02  1.00000000e-02  0.00000000e+00
 6.70000000e-02  0.00000000e+00  0.00000000e+00
 6.70000000e-02  1.00000000e-02  0.00000000e+00
 6.80000000e-02  0.00000000e+00  0.00000000e+00
 6.80000000e-02  1.00000000e-02  0.00000000e+00
 6.90000000e-02  0.00000000e+00  0.00000000e+00
 6.90000000e-02  1.00000000e-02  0.00000000e+00
 7.00000000e-02  0.00000000e+00  0.00000000e+00
 7.00000000e-02  1.00000000e-02  0.00000000e+00
 7.10000000e-02  0.00000000e+00  0.00000000e+00
 7.10000000e-02  1.00000000e-02  0.00000000e+00
 7.20000000e-02  0.00000000e+00  0.00000000e+00
 7.20000000e-02  1.00000000e-02  0.00000000e+00
 7.30000000e-02  0.00000000e+00  0.00000000e+00
 7.30000000e-02  1.00000000e-02  0.00000000e+00
 7.40000000e-02  0.00000000e+00  0.00000000e+00
 7.40000000e-02  1.00000000e-02  0.00000000e+00
 7.50000000e-02  0.00000000e+00  0.00000000e+00
 7.50000000e-02  1.00000000e-02  0.00000000e+00
 7.60000000e-02  0.00000000e+00  0.00000000e+00
 7.60000000e-02  1.00000000e-02  0.00000000e+00
 7.70000000e-02  0.00000000e+00  0.00000000e+00
 7.70000000e-02  1.00000000e-02  0.00000000e+00
 7.80000000e-02  0.00000000e+00  0.00000000e+00
 7.80000000e-02  1.00000000e-02  0.00000000e+00
 7.90000000e-02  0.00000000e+00  0.00000000e+00
 7.90000000e-02  1.00000000e-02  0.00000000e+00
 8.00000000e-02  0.00000000e+00  0.00000000e+00
 8.00000000e-02  1.00000000e-02  0.00000000e+00
 8.10000000e-02  0.00000000e+00  0.00000000e+00
 8.10000000e-02  1.00000000e-02  0.00000000e+00
 8.20000000e-02  0.00000000e+00  0.00000000e+00
 8.20000000e-02  1.00000000e-02  0.00000000e+00
 8.30000000e-02  0.00000000e+00  0.00000000e+00
 8.30000000e-02  1.00000000e-02  0.00000000e+00
 8.40000000e-02  0.00000000e+00  0.00000000e+00
 8.40000000e-02  1.00000000e-02  0.00000000e+00
 8.50000000e-02  0.00000000e+00  0.00000000e+00
 8.50000000e-02  1.00000000e-02  0.00000000e+00
 8.60000000e-02  0.00000000e+00  0.00000000e+00
 8.60000000e-02  1.00000000e-02  0.00000000e+00
 8.70000000e-02  0.00000000e+00  0.00000000e+00
 8.70000000e-02  1.00000000e-02  0.00000000e+00
 8.80000000e-02  0.00000000e+00  0.00000000e+00
 8.80000000e-02  1.00000000e-02  0.00000000e+00
 8.90000000e-02  0.00000000e+00  0.00000000e+00
 8.90000000e-02  1.00000000e-02  0.00000000e+00
 9.00000000e-02  0.00000000e+00  0.00000000e+00
 9.00000000e-02  1.00000000e-02  0.00000000e+00
 9.10000000e-02  0.00000000e+00  0.00000000e+00
 9.10000000e-02  1.00000000e-02  0.00000000e+00
 9.20000000e-02  0.00000000e+00  0.00000000e+00
 9.20000000e-02  1.00000000e-02  0.00000000e+00
 9.30000000e-02  0.00000000e+00  0.00000000e+00
 9.30000000e-02  1.00000000e-02  0.00000000e+00
 9.40000000e-02  0.00000000e+00  0.00000000e+00
 9.40000000e-02  1.00000000e-02  0.00000000e+00
 9.50000000e-02  0.00000000e+00  0.00000000e+00
 9.50000000e-02  1.00000000e-02  0.00000000e+00
 9.60000000e-02  0.00000000e+00  0.00000000e+00
 9.60000000e-02  1.00000000e-02  0.00000000e+00
 9.70000000e-02  0.00000000e+00  0.00000000e+00
 9.70000000e-02  1.00000000e-02  0.00000000e+00
 9.80000000e-02  0.00000000e+00  0.00000000e+00
 9.80000000e-02  1.00000000e-02  0.00000000e+00
 9.90000000e-02  0.00000000e+00  0.00000000e+00
 9.90000000e-02  1.00000000e-02  0.00000000e+00
 1.00000000e-01  0.00000000e+00  0.00000000e+00
 1.00000000e-01  1.00000000e-02  0.00000000e+00
 1.01000000e-01  0.00000000e+00  0.00000000e+00
 1.01000000e-01  1.00000000e-02  0.00000000e+00
 1.02000000e-01  0.00000000e+00  0.00000000e+00
 1.02000000e-01  1.00000000e-02  0.00000000e+00
 1.03000000e-01  0.00000000e+00  0.00000000e+00
 1.03000000e-01  1.00000000e-02  0.00000000e+00
 1.04000000e-01  0.00000000e+00  0.00000000e+00
 1.04000000e-01  1.00000000e-02  0.00000000e+00
 1.05000000e-01  0.00000000e+00  0.00000000e+00
 1.05000000e-01  1.00000000e-02  0.00000000e+00
 1.06000000e-01  0.00000000e+00  0.00000000e+00
 1.06000000e-01  1.00000000e-02  0.00000000e+00
 1.07000000e-01  0.00000000e+00  0.00000000e+00
 1.07000000e-01  1.00000000e-02  0.00000000e+00
 1.08000000e-01  0.00000000e+00  0.00000000e+00
 1.08000000e-01  1.00000000e-02  0.00000000e+00
 1.09000000e-01  0.00000000e+00  0.00000000e+00
 1.09000000e-01  1.00000000e-02  0.00000000e+00
 1.10000000e-01  0.00000000e+00  0.00000000e+00
 1.10000000e-01  1.00000000e-02  0.00000000e+00
 1.11000000e-01  0.00000000e+00  0.00000000e+00
 1.11000000e-01  1.00000000e-02  0.00000000e+00
 1.12000000e-01  0.00000000e+00  0.00000000e+00
 1.12000000e-01  1.00000000e-02  0.00000000e+00
 1.13000000e-01  0.00000000e+00  0.00000000e+00
 1.13000000e-01  1.00000000e-02  0.00000000e+00
 1.14000000e-01  0.00000000e+00  0.00000000e+00
 1.14000000e-01  1.00000000e-02  0.00000000e+00
 1.15000000e-01  0.00000000e+00  0.00000000e+00
 1.15000000e-01  1.00000000e-02  0.00000000e+00
 1.16000000e-01  0.00000000e+00  0.00000000e+00
 1.16000000e-01  1.00000000e-02  0.00000000e+00
 1.17000000e-01  0.00000000e+00  0.00000000e+00
 1.17000000e-01  1.00000000e-02  0.00000000e+00
 1.18000000e-01  0.00000000e+00  0.00000000e+00
 1.18000000e-01  1.00000000e-02  0.00000000e+00
 1.19000000e-01  0.00000000e+00  0.00000000e+00
 1.19000000e-01  1.00000000e-02  0.00000000e+00
 1.20000000e-01  0.00000000e+00  0.00000000e+00
 1.20000000e-01  1.00000000e-02  0.00000000e+00
 1.21000000e-01  0.00000000e+00  0.00000000e+00
 1.21000000e-01  1.00000000e-02  0.00000000e+00
 1.22000000e-01  0.00000000e+00  0.00000000e+00
 1.22000000e-01  1.00000000e-02  0.00000000e+00
 1.23000000e-01  0.00000000e+00  0.00000000e+00
 1.23000000e-01  1.00000000e-02  0.00000000e+00
 1.24000000e-01  0.00000000e+00  0.00000000e+00
 1.24000000e-01  1.00000000e-02  0.00000000e+00
 1.25000000e-01  0.00000000e+00  0.00000000e+00
 1.25000000e-01  1.00000000e-02  0.00000000e+00
 1.26000000e-01  0.00000000e+00  0.00000000e+00
 1.26000000e-01  1.00000000e-02  0.00000000e+00
 1.27000000e-01  0.00000000e+00  0.00000000e+00
 1.27000000e-01  1.00000000e-02  0.00000000e+00
 1.28000000e-01  0.00000000e+00  0.00000000e+00
 1.28000000e-01  1.00000000e-02  0.00000000e+00
 1.29000000e-01  0.00000000e+00  0.00000000e+00
 1.29000000e-01  1.00000000e-02  0.00000000e+00
 1.30000000e-01  0.00000000e+00  0.00000000e+00
 1.30000000e-01  1.00000000e-02  0.00000000e+00
 1.31000000e-01  0.00000000e+00  0.00000000e+00
 1.31000000e-01  1.00000000e-02  0.00000000e+00
 1.32000000e-01  0.00000000e+00  0.00000000e+00
 1.32000000e-01  1.00000000e-02  0.00000000e+00
 1.33000000e-01  0.00000000e+00  0.00000000e+00
 1.33000000e-01  1.00000000e-02  0.00000000e+00
 1.34000000e-01  0.00000000e+00  0.00000000e+00
 1.34000000e-01  1.00000000e-02  0.00000000e+00
 1.35000000e-01  0.00000000e+00  0.00000000e+00
 1.35000000e-01  1.00000000e-02  0.00000000e+00
 1.36000000e-01  0.00000000e+00  0.00000000e+00
 1.36000000e-01  1.00000000e-02  0.00000000e+00
 1.37000000e-01  0.00000000e+00  0.00000000e+00
 1.37000000e-01  1.00000000e-02  0.00000000e+00
 1.38000000e-01  0.00000000e+00  0.00000000e+00
 1.38000000e-01  1.00000000e-02  0.00000000e+00
 1.39000000e-01  0.00000000e+00  0.00000000e+00
 1.39000000e-01  1.00000000e-02  0.00000000e+00
 1.40000000e-01  0.00000000e+00  0.00000000e+00
 1.40000000e-01  1.00000000e-02  0.00000000e+00
 1.41000000e-01  0.00000000e+00  0.00000000e+00
 1.41000000e-01  1.00000000e-02  0.00000000e+00
 1.42000000e-01  0.00000000e+00  0.00000000e+00
 1.42000000e-01  1.00000000e-02  0.00000000e+00
 1.43000000e-01  0.00000000e+00  0.00000000e+00
 1.43000000e-01  1.00000000e-02  0.00000000e+00
 1.44000000e-01  0.00000000e+00  0.00000000e+00
 1.44000000e-01  1.00000000e-02  0.00000000e+00
 1.45000000e-01  0.00000000e+00  0.00000000e+00
 1.45000000e-01  1.00000000e-02  0.00000000e+00
 1.46000000e-01  0.00000000e+00  0.00000000e+00
 1.46000000e-01  1.00000000e-02  0.00000000e+00
 1.47000000e-01  0.00000000e+00  0.00000000e+00
 1.47000000e-01  1.00000000e-02  0.00000000e+00
 1.48000000e-01  0.00000000e+00  0.00000000e+00
 1.48000000e-01  1.00000000e-02  0.00000000e+00
 1.49000000e-01  0.00000000e+00  0.00000000e+00
 1.49000000e-01  1.00000000e-02  0.00000000e+00
 1.50000000e-01  0.00000000e+00  0.00000000e+00
 1.50000000e-01  1.00000000e-02  0.00000000e+00
 0.00000000e+00  1.00000000e-02  0.00000000e+00
 0.00000000e+00  0.00000000e+00  0.00000000e+00
CELLS 151 753
4 301 0 1 300
4 0 2 3 1
4 2 4 5 3
4 4 6 7 5
4 6 8 9 7
4 8 10 11 9
4 10 12 13 11
4 12 14 15 13
4 14 16 17 15
4 16 18 19 17
4 18 20 21 19
4 20 22 23 21
4 22 24 25 23
4 24 26 27 25
4 26 28 29 27
4 28 30 31 29
4 30 32 33 31
4 32 34 35 33
4 34 36 37 35
4 36 38 39 37
4 38 40 41 39
4 40 42 43 41
4 42 44 45 43
4 44 46 47 45
4 46 48 49 47
4 48 50 51 49
4 50 52 53 51
4 52 54 55 53
4 54 56 57 55
4 56 58 59 57
4 58 60 61 59
4 60 62 63 61
4 62 64 65 63
4 64 66 67 65
4 66 68 69 67
4 68 70 71 69
4 70 72 73 71
4 72 74 75 73
4 74 76 77 75
4 76 78 79 77
4 78 80 81 79
4 80 82 83 81
4 82 84 85 83
4 84 86 87 85
4 86 88 89 87
4 88 90 91 89
4 90 92 93 91
4 92 94 95 93
4 94 96 97 95
4 96 98 99 97
4 98 100 101 99
4 100 102 103 101
4 102 104 105 103
4 104 106 107 105
4 106 108 109 107
4 108 110 111 109
4 110 112 113 111
4 112 114 115 113
4 114 116 117 115
4 116 118 119 117
4 118 120 121 119
4 120 122 123 121
4 122 124 125 123
4 124 126 127 125
4 126 128 129 127
4 128 130 131 129
4 130 132 133 131
4 132 134 135 133
4 134 136 137 135
4 136 138 139 137
4 138 140 141 139
4 140 142 143 141
4 142 144 145 143
4 144 146 147 145
4 146 148 149 147
4 148 150 151 149
4 150 152 153 151
4 152 154 155 153
4 154 156 157 155
4 156 158 159 157
4 158 160 161 159
4 160 162 163 161
4 162 164 165 163
4 164 166 167 165
4 166 168 169 167
4 168 170 171 169
4 170 172 173 171
4 172 174 175 173
4 174 176 177 175
4 176 178 179 177
4 178 180 181 179
4 180 182 183 181
4 182 184 185 183
4 184 186 187 185
4 186 188 189 187
4 188 190 191 189
4 190 192 193 191
4 192 194 195 193
4 194 196 197 195
4 196 198 199 197
4 198 200 201 199
4 200 202 203 201
4 202 204 205 203
4 204 206 207 205
4 206 208 209 207
4 208 210 211 209
4 210 212 213 211
4 212 214 215 213
4 214 216 217 215
4 216 218 219 217
4 218 220 221 219
4 220 222 223 221
4 222 224 225 223
4 224 226 227 225
4 226 228 229 227
4 228 230 231 229
4 230 232 233 231
4 232 234 235 233
4 234 236 237 235
4 236 238 239 237
4 238 240 241 239
4 240 242 243 241
4 242 244 245 243
4 244 246 247 245
4 246 248 249 247
4 248 250 251 249
4 250 252 253 251
4 252 254 255 253
4 254 256 257 255
4 256 258 259 257
4 258 260 261 259
4 260 262 263 261
4 262 264 265 263
4 264 266 267 265
4 266 268 269 267
4 268 270 271 269
4 270 272 273 271
4 272 274 275 273
4 274 276 277 275
4 276 278 279 277
4 278 280 281 279
4 280 282 283 281
4 282 284 285 283
4 284 286 287 285
4 286 288 289 287
4 288 290 291 289
4 290 292 293 291
4 292 294 295 293
4 294 296 297 295
4 296 298 299 297
2 300 301
CELL_TYPES 151
9
9
9
9
9
9
9
9
9
9
9
9
9
9
9
9
9
9
9
9
9
9
9
9
9
9
9
9
9
9
9
9
9
9
9
9
9
9
9
9
9
9
9
9
9
9
9
9
9
9
9
9
9
9
9
9
9
9
9
9
9
9
9
9
9
9
9
9
9
9
9
9
9
9
9
9
9
9
9
9
9
9
9
9
9
9
9
9
9
9
9
9
9
9
9
9
9
9
9
9
9
9
9
9
9
9
9
9
9
9
9
9
9
9
9
9
9
9
9
9
9
9
9
9
9
9
9
9
9
9
9
9
9
9
9
9
9
9
9
9
9
9
9
9
9
9
9
9
9
9
3
POINT_DATA  302
SCALARS Na double 1
LOOKUP_TABLE default
6.07226497e-03 
6.07226497e-03 
1.18914436e-03 
1.18914436e-03 
2.32872628e-04 
2.32872628e-04 
4.56039340e-05 
4.56039340e-05 
8.93071384e-06 
8.93071384e-06 
1.74892038e-06 
1.74892038e-06 
3.42494738e-07 
3.42494738e-07 
6.70714613e-08 
6.70714613e-08 
1.31347446e-08 
1.31347446e-08 
2.57220453e-09 
2.57220453e-09 
5.03720195e-10 
5.03720195e-10 
9.86445800e-11 
9.86445800e-11 
1.93177745e-11 
1.93177745e-11 
3.78304021e-12 
3.78304021e-12 
7.40840681e-13 
7.40840681e-13 
1.45080381e-13 
1.45080381e-13 
2.84113946e-14 
2.84113946e-14 
5.56386287e-15 
5.56386287e-15 
1.08958291e-15 
1.08958291e-15 
2.13375301e-16 
2.13375301e-16 
4.17857317e-17 
4.17857317e-17 
8.18298729e-18 
8.18298729e-18 
1.60249153e-18 
1.60249153e-18 
3.13819269e-19 
3.13819269e-19 
6.14558842e-20 
6.14558842e-20 
1.20350344e-20 
1.20350344e-20 
2.35684597e-21 
2.35684597e-21 
4.61546079e-22 
4.61546079e-22 
9.03855346e-23 
9.03855346e-23 
1.77003884e-23 
1.77003884e-23 
3.46630410e-24 
3.46630410e-24 
6.78813586e-25 
6.78813586e-25 
1.32933485e-25 
1.32933485e-25 
0.00000000e+00 
0.00000000e+00 
0.00000000e+00 
0.00000000e+00 
0.00000000e+00 
0.00000000e+00 
0.00000000e+00 
0.00000000e+00 
0.00000000e+00 
0.00000000e+00 
0.00000000e+00 
0.00000000e+00 
0.00000000e+00 
0.00000000e+00 
0.00000000e+00 
0.00000000e+00 
0.00000000e+00 
0.00000000e+00 
0.00000000e+00 
0.00000000e+00 
0.00000000e+00 
0.00000000e+00 
0.00000000e+00 
0.00000000e+00 
0.00000000e+00 
0.00000000e+00 
0.00000000e+00 
0.00000000e+00 
0.00000000e+00 
0.00000000e+00 
0.00000000e+00 
0.00000000e+00 
0.00000000e+00 
0.00000000e+00 
0.00000000e+00 
0.00000000e+00 
0.00000000e+00 
0.00000000e+00 
0.00000000e+00 
0.00000000e+00 
0.00000000e+00 
0.00000000e+00 
0.00000000e+00 
0.00000000e+00 
0.00000000e+00 
0.00000000e+00 
0.00000000e+00 
0.00000000e+00 
0.00000000e+00 
0.00000000e+00 
0.00000000e+00 
0.00000000e+00 
0.00000000e+00 
0.00000000e+00 
0.00000000e+00 
0.00000000e+00 
0.00000000e+00 
0.00000000e+00 
0.00000000e+00 
0.00000000e+00 
0.00000000e+00 
0.00000000e+00 
0.00000000e+00 
0.00000000e+00 
0.00000000e+00 
0.00000000e+00 
0.00000000e+00 
0.00000000e+00 
0.00000000e+00 
0.00000000e+00 
0.00000000e+00 
0.00000000e+00 
0.00000000e+00 
0.00000000e+00 
0.00000000e+00 
0.00000000e+00 
0.00000000e+00 
0.00000000e+00 
0.00000000e+00 
0.00000000e+00 
0.00000000e+00 
0.00000000e+00 
0.00000000e+00 
0.00000000e+00 
0.00000000e+00 
0.00000000e+00 
0.00000000e+00 
0.00000000e+00 
0.00000000e+00 
0.00000000e+00 
0.00000000e+00 
0.00000000e+00 
0.00000000e+00 
0.00000000e+00 
0.00000000e+00 
0.00000000e+00 
0.00000000e+00 
0.00000000e+00 
0.00000000e+00 
0.00000000e+00 
0.00000000e+00 
0.00000000e+00 
0.00000000e+00 
0.00000000e+00 
0.00000000e+00 
0.00000000e+00 
0.00000000e+00 
0.00000000e+00 
0.00000000e+00 
0.00000000e+00 
0.00000000e+00 
0.00000000e+00 
0.00000000e+00 
0.00000000e+00 
0.00000000e+00 
0.00000000e+00 
0.00000000e+00 
0.00000000e+00 
0.00000000e+00 
0.00000000e+00 
0.00000000e+00 
0.00000000e+00 
0.00000000e+00 
0.00000000e+00 
0.00000000e+00 
0.00000000e+00 
0.00000000e+00 
0.00000000e+00 
0.00000000e+00 
0.00000000e+00 
0.00000000e+00 
0.00000000e+00 
0.00000000e+00 
0.00000000e+00 
0.00000000e+00 
0.00000000e+00 
0.00000000e+00 
0.00000000e+00 
0.00000000e+00 
0.00000000e+00 
0.00000000e+00 
0.00000000e+00 
0.00000000e+00 
0.00000000e+00 
0.00000000e+00 
0.00000000e+00 
0.00000000e+00 
0.00000000e+00 
0.00000000e+00 
0.00000000e+00 
0.00000000e+00 
0.00000000e+00 
0.00000000e+00 
0.00000000e+00 
0.00000000e+00 
0.00000000e+00 
0.00000000e+00 
0.00000000e+00 
0.00000000e+00 
0.00000000e+00 
0.00000000e+00 
0.00000000e+00 
0.00000000e+00 
0.00000000e+00 
0.00000000e+00 
0.00000000e+00 
0.00000000e+00 
0.00000000e+00 
0.00000000e+00 
0.00000000e+00 
0.00000000e+00 
0.00000000e+00 
0.00000000e+00 
0.00000000e+00 
0.00000000e+00 
0.00000000e+00 
0.00000000e+00 
0.00000000e+00 
0.00000000e+00 
0.00000000e+00 
0.00000000e+00 
0.00000000e+00 
0.00000000e+00 
0.00000000e+00 
0.00000000e+00 
0.00000000e+00 
0.00000000e+00 
0.00000000e+00 
0.00000000e+00 
0.00000000e+00 
0.00000000e+00 
0.00000000e+00 
0.00000000e+00 
0.00000000e+00 
0.00000000e+00 
0.00000000e+00 
0.00000000e+00 
0.00000000e+00 
0.00000000e+00 
0.00000000e+00 
0.00000000e+00 
0.00000000e+00 
0.00000000e+00 
0.00000000e+00 
0.00000000e+00 
0.00000000e+00 
0.00000000e+00 
0.00000000e+00 
0.00000000e+00 
0.00000000e+00 
0.00000000e+00 
0.00000000e+00 
0.00000000e+00 
0.00000000e+00 
0.00000000e+00 
0.00000000e+00 
0.00000000e+00 
0.00000000e+00 
0.00000000e+00 
0.00000000e+00 
0.00000000e+00 
0.00000000e+00 
0.00000000e+00 
0.00000000e+00 
0.00000000e+00 
0.00000000e+00 
0.00000000e+00 
0.00000000e+00 
0.00000000e+00 
0.00000000e+00 
0.00000000e+00 
0.00000000e+00 
0.00000000e+00 
0.00000000e+00 
2.00000092e-02 
2.00000092e-02 
