# vtk DataFile Version 3.0
ElmerSolver output; started at 2009/02/17 02:27:46
ASCII
DATASET UNSTRUCTURED_GRID
POINTS 1722 double
  0.00000000000E+000  0.15000000000E+000  0.00000000000E+000
  0.00000000000E+000  0.15863314509E+000  0.00000000000E+000
  0.00000000000E+000  0.16782779935E+000  0.00000000000E+000
  0.00000000000E+000  0.17762048393E+000  0.00000000000E+000
  0.00000000000E+000  0.18805009539E+000  0.00000000000E+000
  0.00000000000E+000  0.19915806014E+000  0.00000000000E+000
  0.00000000000E+000  0.21098849901E+000  0.00000000000E+000
  0.00000000000E+000  0.22358840253E+000  0.00000000000E+000
  0.00000000000E+000  0.23700781749E+000  0.00000000000E+000
  0.00000000000E+000  0.25130004582E+000  0.00000000000E+000
  0.00000000000E+000  0.26652185625E+000  0.00000000000E+000
  0.00000000000E+000  0.28273370982E+000  0.00000000000E+000
  0.00000000000E+000  0.30000000000E+000  0.00000000000E+000
  0.83333333333E-002  0.15000000000E+000  0.00000000000E+000
  0.83333333333E-002  0.15863314509E+000  0.00000000000E+000
  0.83333333333E-002  0.16782779935E+000  0.00000000000E+000
  0.83333333333E-002  0.17762048393E+000  0.00000000000E+000
  0.83333333333E-002  0.18805009539E+000  0.00000000000E+000
  0.83333333333E-002  0.19915806014E+000  0.00000000000E+000
  0.83333333333E-002  0.21098849901E+000  0.00000000000E+000
  0.83333333333E-002  0.22358840253E+000  0.00000000000E+000
  0.83333333333E-002  0.23700781749E+000  0.00000000000E+000
  0.83333333333E-002  0.25130004582E+000  0.00000000000E+000
  0.83333333333E-002  0.26652185625E+000  0.00000000000E+000
  0.83333333333E-002  0.28273370982E+000  0.00000000000E+000
  0.83333333333E-002  0.30000000000E+000  0.00000000000E+000
  0.16666666667E-001  0.15000000000E+000  0.00000000000E+000
  0.16666666667E-001  0.15863314509E+000  0.00000000000E+000
  0.16666666667E-001  0.16782779935E+000  0.00000000000E+000
  0.16666666667E-001  0.17762048393E+000  0.00000000000E+000
  0.16666666667E-001  0.18805009539E+000  0.00000000000E+000
  0.16666666667E-001  0.19915806014E+000  0.00000000000E+000
  0.16666666667E-001  0.21098849901E+000  0.00000000000E+000
  0.16666666667E-001  0.22358840253E+000  0.00000000000E+000
  0.16666666667E-001  0.23700781749E+000  0.00000000000E+000
  0.16666666667E-001  0.25130004582E+000  0.00000000000E+000
  0.16666666667E-001  0.26652185625E+000  0.00000000000E+000
  0.16666666667E-001  0.28273370982E+000  0.00000000000E+000
  0.16666666667E-001  0.30000000000E+000  0.00000000000E+000
  0.25000000000E-001  0.15000000000E+000  0.00000000000E+000
  0.25000000000E-001  0.15863314509E+000  0.00000000000E+000
  0.25000000000E-001  0.16782779935E+000  0.00000000000E+000
  0.25000000000E-001  0.17762048393E+000  0.00000000000E+000
  0.25000000000E-001  0.18805009539E+000  0.00000000000E+000
  0.25000000000E-001  0.19915806014E+000  0.00000000000E+000
  0.25000000000E-001  0.21098849901E+000  0.00000000000E+000
  0.25000000000E-001  0.22358840253E+000  0.00000000000E+000
  0.25000000000E-001  0.23700781749E+000  0.00000000000E+000
  0.25000000000E-001  0.25130004582E+000  0.00000000000E+000
  0.25000000000E-001  0.26652185625E+000  0.00000000000E+000
  0.25000000000E-001  0.28273370982E+000  0.00000000000E+000
  0.25000000000E-001  0.30000000000E+000  0.00000000000E+000
  0.33333333333E-001  0.15000000000E+000  0.00000000000E+000
  0.33333333333E-001  0.15863314509E+000  0.00000000000E+000
  0.33333333333E-001  0.16782779935E+000  0.00000000000E+000
  0.33333333333E-001  0.17762048393E+000  0.00000000000E+000
  0.33333333333E-001  0.18805009539E+000  0.00000000000E+000
  0.33333333333E-001  0.19915806014E+000  0.00000000000E+000
  0.33333333333E-001  0.21098849901E+000  0.00000000000E+000
  0.33333333333E-001  0.22358840253E+000  0.00000000000E+000
  0.33333333333E-001  0.23700781749E+000  0.00000000000E+000
  0.33333333333E-001  0.25130004582E+000  0.00000000000E+000
  0.33333333333E-001  0.26652185625E+000  0.00000000000E+000
  0.33333333333E-001  0.28273370982E+000  0.00000000000E+000
  0.33333333333E-001  0.30000000000E+000  0.00000000000E+000
  0.41666666667E-001  0.15000000000E+000  0.00000000000E+000
  0.41666666667E-001  0.15863314509E+000  0.00000000000E+000
  0.41666666667E-001  0.16782779935E+000  0.00000000000E+000
  0.41666666667E-001  0.17762048393E+000  0.00000000000E+000
  0.41666666667E-001  0.18805009539E+000  0.00000000000E+000
  0.41666666667E-001  0.19915806014E+000  0.00000000000E+000
  0.41666666667E-001  0.21098849901E+000  0.00000000000E+000
  0.41666666667E-001  0.22358840253E+000  0.00000000000E+000
  0.41666666667E-001  0.23700781749E+000  0.00000000000E+000
  0.41666666667E-001  0.25130004582E+000  0.00000000000E+000
  0.41666666667E-001  0.26652185625E+000  0.00000000000E+000
  0.41666666667E-001  0.28273370982E+000  0.00000000000E+000
  0.41666666667E-001  0.30000000000E+000  0.00000000000E+000
  0.50000000000E-001  0.15000000000E+000  0.00000000000E+000
  0.50000000000E-001  0.15863314509E+000  0.00000000000E+000
  0.50000000000E-001  0.16782779935E+000  0.00000000000E+000
  0.50000000000E-001  0.17762048393E+000  0.00000000000E+000
  0.50000000000E-001  0.18805009539E+000  0.00000000000E+000
  0.50000000000E-001  0.19915806014E+000  0.00000000000E+000
  0.50000000000E-001  0.21098849901E+000  0.00000000000E+000
  0.50000000000E-001  0.22358840253E+000  0.00000000000E+000
  0.50000000000E-001  0.23700781749E+000  0.00000000000E+000
  0.50000000000E-001  0.25130004582E+000  0.00000000000E+000
  0.50000000000E-001  0.26652185625E+000  0.00000000000E+000
  0.50000000000E-001  0.28273370982E+000  0.00000000000E+000
  0.50000000000E-001  0.30000000000E+000  0.00000000000E+000
  0.58333333333E-001  0.15000000000E+000  0.00000000000E+000
  0.58333333333E-001  0.15863314509E+000  0.00000000000E+000
  0.58333333333E-001  0.16782779935E+000  0.00000000000E+000
  0.58333333333E-001  0.17762048393E+000  0.00000000000E+000
  0.58333333333E-001  0.18805009539E+000  0.00000000000E+000
  0.58333333333E-001  0.19915806014E+000  0.00000000000E+000
  0.58333333333E-001  0.21098849901E+000  0.00000000000E+000
  0.58333333333E-001  0.22358840253E+000  0.00000000000E+000
  0.58333333333E-001  0.23700781749E+000  0.00000000000E+000
  0.58333333333E-001  0.25130004582E+000  0.00000000000E+000
  0.58333333333E-001  0.26652185625E+000  0.00000000000E+000
  0.58333333333E-001  0.28273370982E+000  0.00000000000E+000
  0.58333333333E-001  0.30000000000E+000  0.00000000000E+000
  0.66666666667E-001  0.15000000000E+000  0.00000000000E+000
  0.66666666667E-001  0.15863314509E+000  0.00000000000E+000
  0.66666666667E-001  0.16782779935E+000  0.00000000000E+000
  0.66666666667E-001  0.17762048393E+000  0.00000000000E+000
  0.66666666667E-001  0.18805009539E+000  0.00000000000E+000
  0.66666666667E-001  0.19915806014E+000  0.00000000000E+000
  0.66666666667E-001  0.21098849901E+000  0.00000000000E+000
  0.66666666667E-001  0.22358840253E+000  0.00000000000E+000
  0.66666666667E-001  0.23700781749E+000  0.00000000000E+000
  0.66666666667E-001  0.25130004582E+000  0.00000000000E+000
  0.66666666667E-001  0.26652185625E+000  0.00000000000E+000
  0.66666666667E-001  0.28273370982E+000  0.00000000000E+000
  0.66666666667E-001  0.30000000000E+000  0.00000000000E+000
  0.75000000000E-001  0.15000000000E+000  0.00000000000E+000
  0.75000000000E-001  0.15863314509E+000  0.00000000000E+000
  0.75000000000E-001  0.16782779935E+000  0.00000000000E+000
  0.75000000000E-001  0.17762048393E+000  0.00000000000E+000
  0.75000000000E-001  0.18805009539E+000  0.00000000000E+000
  0.75000000000E-001  0.19915806014E+000  0.00000000000E+000
  0.75000000000E-001  0.21098849901E+000  0.00000000000E+000
  0.75000000000E-001  0.22358840253E+000  0.00000000000E+000
  0.75000000000E-001  0.23700781749E+000  0.00000000000E+000
  0.75000000000E-001  0.25130004582E+000  0.00000000000E+000
  0.75000000000E-001  0.26652185625E+000  0.00000000000E+000
  0.75000000000E-001  0.28273370982E+000  0.00000000000E+000
  0.75000000000E-001  0.30000000000E+000  0.00000000000E+000
  0.83333333333E-001  0.15000000000E+000  0.00000000000E+000
  0.83333333333E-001  0.15863314509E+000  0.00000000000E+000
  0.83333333333E-001  0.16782779935E+000  0.00000000000E+000
  0.83333333333E-001  0.17762048393E+000  0.00000000000E+000
  0.83333333333E-001  0.18805009539E+000  0.00000000000E+000
  0.83333333333E-001  0.19915806014E+000  0.00000000000E+000
  0.83333333333E-001  0.21098849901E+000  0.00000000000E+000
  0.83333333333E-001  0.22358840253E+000  0.00000000000E+000
  0.83333333333E-001  0.23700781749E+000  0.00000000000E+000
  0.83333333333E-001  0.25130004582E+000  0.00000000000E+000
  0.83333333333E-001  0.26652185625E+000  0.00000000000E+000
  0.83333333333E-001  0.28273370982E+000  0.00000000000E+000
  0.83333333333E-001  0.30000000000E+000  0.00000000000E+000
  0.91666666667E-001  0.15000000000E+000  0.00000000000E+000
  0.91666666667E-001  0.15863314509E+000  0.00000000000E+000
  0.91666666667E-001  0.16782779935E+000  0.00000000000E+000
  0.91666666667E-001  0.17762048393E+000  0.00000000000E+000
  0.91666666667E-001  0.18805009539E+000  0.00000000000E+000
  0.91666666667E-001  0.19915806014E+000  0.00000000000E+000
  0.91666666667E-001  0.21098849901E+000  0.00000000000E+000
  0.91666666667E-001  0.22358840253E+000  0.00000000000E+000
  0.91666666667E-001  0.23700781749E+000  0.00000000000E+000
  0.91666666667E-001  0.25130004582E+000  0.00000000000E+000
  0.91666666667E-001  0.26652185625E+000  0.00000000000E+000
  0.91666666667E-001  0.28273370982E+000  0.00000000000E+000
  0.91666666667E-001  0.30000000000E+000  0.00000000000E+000
  0.10000000000E+000  0.15000000000E+000  0.00000000000E+000
  0.10000000000E+000  0.15863314509E+000  0.00000000000E+000
  0.10000000000E+000  0.16782779935E+000  0.00000000000E+000
  0.10000000000E+000  0.17762048393E+000  0.00000000000E+000
  0.10000000000E+000  0.18805009539E+000  0.00000000000E+000
[...]
POINT_DATA 1722
VECTORS Velocity double
 0.0 0.0 0.0
 0.0 0.0 0.0
 0.0 0.0 0.0
 0.0 0.0 0.0
 0.0 0.0 0.0
 0.0 0.0 0.0
 0.0 0.0 0.0
 0.0 0.0 0.0
 0.0 0.0 0.0
 0.0 0.0 0.0
 0.0 0.0 0.0
 0.0 0.0 0.0
 0.0 0.0 0.0
 0.0 0.0 0.0
 0.0 0.0 0.0
 0.0 0.0 0.0
 0.0 0.0 0.0
 0.0 0.0 0.0
 0.0 0.0 0.0
 0.0 0.0 0.0
 0.0 0.0 0.0
 0.0 0.0 0.0
 0.0 0.0 0.0
 0.0 0.0 0.0
 0.0 0.0 0.0
 0.0 0.0 0.0
 0.0 0.0 0.0
 0.0 0.0 0.0
 0.0 0.0 0.0
 0.0 0.0 0.0
 0.0 0.0 0.0
 0.0 0.0 0.0
 0.0 0.0 0.0
 0.0 0.0 0.0
 0.0 0.0 0.0
 0.0 0.0 0.0
 0.0 0.0 0.0
 0.0 0.0 0.0
 0.0 0.0 0.0
 0.0 0.0 0.0
 0.0 0.0 0.0
 0.0 0.0 0.0
 0.0 0.0 0.0
 0.0 0.0 0.0
 0.0 0.0 0.0
 0.0 0.0 0.0
 0.0 0.0 0.0
 0.0 0.0 0.0
 0.0 0.0 0.0
 0.0 0.0 0.0
 0.0 0.0 0.0
 0.0 0.0 0.0
 0.0 0.0 0.0
 0.0 0.0 0.0
 0.0 0.0 0.0
 0.0 0.0 0.0
 0.0 0.0 0.0
 0.0 0.0 0.0
 0.0 0.0 0.0
 0.0 0.0 0.0
 0.0 0.0 0.0
 0.0 0.0 0.0
 0.0 0.0 0.0
 0.0 0.0 0.0
 0.0 0.0 0.0
 0.0 0.0 0.0
 0.0 0.0 0.0
 0.0 0.0 0.0
 0.0 0.0 0.0
 0.0 0.0 0.0
 0.0 0.0 0.0
 0.0 0.0 0.0
 0.0 0.0 0.0
 0.0 0.0 0.0
 0.0 0.0 0.0
 0.0 0.0 0.0
 0.0 0.0 0.0
 0.0 0.0 0.0
 0.0 0.0 0.0
 0.0 0.0 0.0
 0.0 0.0 0.0
 0.0 0.0 0.0
 0.0 0.0 0.0
 0.0 0.0 0.0
 0.0 0.0 0.0
 0.0 0.0 0.0
 0.0 0.0 0.0
 0.0 0.0 0.0
 0.0 0.0 0.0
 0.0 0.0 0.0
 0.0 0.0 0.0
 0.0 0.0 0.0
 0.0 0.0 0.0
 0.0 0.0 0.0
 0.0 0.0 0.0
 0.0 0.0 0.0
 0.0 0.0 0.0
 0.0 0.0 0.0
 0.0 0.0 0.0
 0.0 0.0 0.0
 0.0 0.0 0.0
 0.0 0.0 0.0
 0.0 0.0 0.0
 0.0 0.0 0.0
 0.0 0.0 0.0
 0.0 0.0 0.0
 0.0 0.0 0.0
 0.0 0.0 0.0
 0.0 0.0 0.0
 0.0 0.0 0.0
 0.0 0.0 0.0
 0.0 0.0 0.0
 0.0 0.0 0.0
 0.0 0.0 0.0
 0.0 0.0 0.0
 0.0 0.0 0.0
 0.0 0.0 0.0
 0.0 0.0 0.0
 0.0 0.0 0.0
 0.0 0.0 0.0
 0.0 0.0 0.0
 0.0 0.0 0.0
 0.0 0.0 0.0
 0.0 0.0 0.0
 0.0 0.0 0.0
 0.0 0.0 0.0
 0.0 0.0 0.0
 0.0 0.0 0.0
 0.0 0.0 0.0
 0.0 0.0 0.0
 0.0 0.0 0.0
 0.0 0.0 0.0
 0.0 0.0 0.0
 0.0 0.0 0.0
 0.0 0.0 0.0
 0.0 0.0 0.0
 0.0 0.0 0.0
 0.0 0.0 0.0
 0.0 0.0 0.0
 0.0 0.0 0.0
 0.0 0.0 0.0
 0.0 0.0 0.0
 0.0 0.0 0.0
 0.0 0.0 0.0
 0.0 0.0 0.0
 0.0 0.0 0.0
 0.0 0.0 0.0
 0.0 0.0 0.0
 0.0 0.0 0.0
 0.0 0.0 0.0
 0.0 0.0 0.0
 0.0 0.0 0.0
 0.0 0.0 0.0
 0.0 0.0 0.0
 0.0 0.0 0.0
 0.0 0.0 0.0
 0.0 0.0 0.0
 0.0 0.0 0.0
 0.0 0.0 0.0
 0.0 0.0 0.0
 0.0 0.0 0.0
 0.0 0.0 0.0
 0.0 0.0 0.0
 0.0 0.0 0.0
 0.0 0.0 0.0
 0.0 0.0 0.0
 0.0 0.0 0.0
 0.0 0.0 0.0
 0.0 0.0 0.0
 0.0 0.0 0.0
 0.0 0.0 0.0
 0.0 0.0 0.0
 0.0 0.0 0.0
 0.0 0.0 0.0
 0.0 0.0 0.0
 0.0 0.0 0.0
 0.0 0.0 0.0
 0.0 0.0 0.0
 0.0 0.0 0.0
 0.0 0.0 0.0
 0.0 0.0 0.0
 0.0 0.0 0.0
 0.0 0.0 0.0
 0.0 0.0 0.0
 0.0 0.0 0.0
 0.0 0.0 0.0
 0.0 0.0 0.0
 0.0 0.0 0.0
 0.0 0.0 0.0
 0.0 0.0 0.0
 0.0 0.0 0.0
 0.0 0.0 0.0
 0.0 0.0 0.0
 0.0 0.0 0.0
 0.0 0.0 0.0
 0.0 0.0 0.0
 0.0 0.0 0.0
 0.0 0.0 0.0
 0.0 0.0 0.0
 0.0 0.0 0.0
 0.0 0.0 0.0
 0.0 0.0 0.0
 0.0 0.0 0.0
 0.0 0.0 0.0
 0.0 0.0 0.0
 0.0 0.0 0.0
 0.0 0.0 0.0
 0.0 0.0 0.0
 0.0 0.0 0.0
 0.0 0.0 0.0
 0.0 0.0 0.0
 0.0 0.0 0.0
 0.0 0.0 0.0
 0.0 0.0 0.0
 0.0 0.0 0.0
 0.0 0.0 0.0
 0.0 0.0 0.0
 0.0 0.0 0.0
 0.0 0.0 0.0
 0.0 0.0 0.0
 0.0 0.0 0.0
 0.0 0.0 0.0
 0.0 0.0 0.0
 0.0 0.0 0.0
 0.0 0.0 0.0
 0.0 0.0 0.0
 0.0 0.0 0.0
 0.0 0.0 0.0
 0.0 0.0 0.0
 0.0 0.0 0.0
 0.0 0.0 0.0
 0.0 0.0 0.0
 0.0 0.0 0.0
 0.0 0.0 0.0
  0.00000000000E+000  0.00000000000E+000 0.0
 -0.12041463152E+001 -0.30475656471E-001 0.0
 -0.97517313211E+000 -0.19425522538E+000 0.0
 -0.10319109621E+001 -0.34981274705E+000 0.0
 -0.97131874817E+000 -0.48654695282E+000 0.0
 -0.93889155760E+000 -0.60630389535E+000 0.0
 -0.89460960950E+000 -0.71310040756E+000 0.0
 -0.83109504627E+000 -0.79594396344E+000 0.0
 -0.73501965500E+000 -0.84012948582E+000 0.0
 -0.59890989880E+000 -0.83098713638E+000 0.0
 -0.41928706634E+000 -0.75506207728E+000 0.0
 -0.19963830344E+000 -0.57116521471E+000 0.0
  0.00000000000E+000  0.00000000000E+000 0.0
  0.00000000000E+000  0.00000000000E+000 0.0
  0.00000000000E+000  0.00000000000E+000 0.0
  0.00000000000E+000  0.00000000000E+000 0.0
  0.00000000000E+000  0.00000000000E+000 0.0
  0.00000000000E+000  0.00000000000E+000 0.0
  0.00000000000E+000  0.00000000000E+000 0.0
  0.00000000000E+000  0.00000000000E+000 0.0
  0.00000000000E+000  0.00000000000E+000 0.0
  0.00000000000E+000  0.00000000000E+000 0.0
  0.00000000000E+000  0.00000000000E+000 0.0
  0.00000000000E+000  0.00000000000E+000 0.0
  0.00000000000E+000  0.00000000000E+000 0.0
  0.00000000000E+000  0.00000000000E+000 0.0
  0.00000000000E+000  0.00000000000E+000 0.0
  0.00000000000E+000  0.00000000000E+000 0.0
  0.00000000000E+000  0.00000000000E+000 0.0
  0.00000000000E+000  0.00000000000E+000 0.0
  0.00000000000E+000  0.00000000000E+000 0.0
  0.00000000000E+000  0.00000000000E+000 0.0
  0.00000000000E+000  0.00000000000E+000 0.0
  0.00000000000E+000  0.00000000000E+000 0.0
  0.00000000000E+000  0.00000000000E+000 0.0
  0.00000000000E+000  0.00000000000E+000 0.0
 0.0 0.0 0.0
 0.0 0.0 0.0
 0.0 0.0 0.0
 0.0 0.0 0.0
 0.0 0.0 0.0
 0.0 0.0 0.0
 0.0 0.0 0.0
 0.0 0.0 0.0
 0.0 0.0 0.0
 0.0 0.0 0.0
 0.0 0.0 0.0
 0.0 0.0 0.0
  0.00000000000E+000  0.00000000000E+000 0.0
 -0.85168593253E+000 -0.83132976252E-001 0.0
 -0.70784931130E+000 -0.19796066828E+000 0.0
 -0.77458829375E+000 -0.29242413281E+000 0.0
 -0.75040799136E+000 -0.38849933086E+000 0.0
 -0.72481773168E+000 -0.48052166912E+000 0.0
 -0.69608273092E+000 -0.57516315211E+000 0.0
 -0.66416554024E+000 -0.67280969139E+000 0.0
 -0.62315898645E+000 -0.76967418472E+000 0.0
 -0.56493974957E+000 -0.85760909709E+000 0.0
 -0.48390457981E+000 -0.92504692698E+000 0.0
 -0.38061943253E+000 -0.95685427800E+000 0.0
 -0.24389831277E+000 -0.98084051415E+000 0.0
 -0.15566724147E+000 -0.86789848108E+000 0.0
 -0.12866891995E+000 -0.77018852566E+000 0.0
 -0.11131296611E+000 -0.68259502647E+000 0.0
 -0.10074775615E+000 -0.60084792374E+000 0.0
 -0.94929153918E-001 -0.52306652075E+000 0.0
 -0.92527640103E-001 -0.44814873697E+000 0.0
 -0.92300731042E-001 -0.37575611003E+000 0.0
 -0.92886177340E-001 -0.30628601921E+000 0.0
 -0.92647447241E-001 -0.24078163873E+000 0.0
 -0.89635957948E-001 -0.18066986655E+000 0.0
 -0.81694597049E-001 -0.12731072782E+000 0.0
 -0.66684032701E-001 -0.81503615420E-001 0.0
 -0.42770918936E-001 -0.43183546754E-001 0.0
 -0.10251960633E-001 -0.97344418216E-002 0.0
  0.17942360668E-001  0.14448993020E-001 0.0
  0.15619859208E-001  0.10422829103E-001 0.0
  0.11803913613E-001  0.25514191425E-002 0.0
 -0.13684951266E-002 -0.42959829448E-002 0.0
 -0.10307973203E-002 -0.39635733923E-002 0.0
 -0.11821789032E-002 -0.23474823175E-002 0.0
 -0.64624764723E-004 -0.90865174536E-003 0.0
  0.10165204468E-002  0.16144393115E-003 0.0
  0.00000000000E+000  0.00000000000E+000 0.0
 0.0 0.0 0.0
 0.0 0.0 0.0
 0.0 0.0 0.0
 0.0 0.0 0.0
 0.0 0.0 0.0
 0.0 0.0 0.0
 0.0 0.0 0.0
 0.0 0.0 0.0
 0.0 0.0 0.0
 0.0 0.0 0.0
 0.0 0.0 0.0
 0.0 0.0 0.0
  0.00000000000E+000  0.00000000000E+000 0.0
 -0.56592730492E+000 -0.74581636530E-001 0.0
 -0.53481364071E+000 -0.17682870648E+000 0.0
 -0.59249703591E+000 -0.25626579376E+000 0.0
 -0.59696031278E+000 -0.32786638729E+000 0.0
 -0.58505862171E+000 -0.38469094540E+000 0.0
 -0.56152427482E+000 -0.42993567297E+000 0.0
 -0.53146738265E+000 -0.46684918459E+000 0.0
 -0.49638593499E+000 -0.49764849473E+000 0.0
 -0.45573308957E+000 -0.52244371194E+000 0.0
 -0.40833809154E+000 -0.53856610518E+000 0.0
 -0.35565380184E+000 -0.54318953760E+000 0.0
 -0.32115288251E+000 -0.52008396625E+000 0.0
 -0.28137989821E+000 -0.51371747639E+000 0.0
 -0.23993979218E+000 -0.49215439815E+000 0.0
 -0.21612256405E+000 -0.46824086605E+000 0.0
 -0.20072138610E+000 -0.44300408012E+000 0.0
 -0.19162102931E+000 -0.41665278774E+000 0.0
 -0.18698866646E+000 -0.38927936982E+000 0.0
 -0.18514864838E+000 -0.36070913396E+000 0.0
 -0.18431509241E+000 -0.33055150065E+000 0.0
 -0.18250611454E+000 -0.29829156540E+000 0.0
 -0.17756702830E+000 -0.26342988232E+000 0.0
 -0.16731784891E+000 -0.22562921685E+000 0.0
 -0.14982932827E+000 -0.18479167618E+000 0.0
 -0.12390429643E+000 -0.14103272705E+000 0.0
 -0.89345182739E-001 -0.95398515663E-001 0.0
 -0.47012060519E-001 -0.49170235517E-001 0.0
 -0.18462074367E-002 -0.59662669893E-002 0.0
  0.23117103515E-001  0.12338286309E-001 0.0
  0.16151388948E-001  0.62994796570E-002 0.0
  0.21668554182E-003 -0.18385326803E-002 0.0
 -0.27212213098E-002 -0.49432216048E-002 0.0
 -0.31794198592E-002 -0.40734997111E-002 0.0
 -0.18325795794E-002 -0.21271985945E-002 0.0
  0.00000000000E+000  0.00000000000E+000 0.0
 0.0 0.0 0.0
 0.0 0.0 0.0
 0.0 0.0 0.0
 0.0 0.0 0.0
 0.0 0.0 0.0
 0.0 0.0 0.0
 0.0 0.0 0.0
 0.0 0.0 0.0
 0.0 0.0 0.0
 0.0 0.0 0.0
 0.0 0.0 0.0
 0.0 0.0 0.0
  0.00000000000E+000  0.00000000000E+000 0.0
 -0.32874892959E+000 -0.77952490804E-001 0.0
 -0.37732798536E+000 -0.16820137139E+000 0.0
 -0.43805123906E+000 -0.24259061512E+000 0.0
 -0.47007822194E+000 -0.31066393954E+000 0.0
 -0.48159104178E+000 -0.36889557568E+000 0.0
 -0.47784339418E+000 -0.41790588748E+000 0.0
 -0.46356006116E+000 -0.45833823173E+000 0.0
 -0.44241243372E+000 -0.49054032322E+000 0.0
 -0.41686319030E+000 -0.51409445546E+000 0.0
 -0.38908653872E+000 -0.52829036545E+000 0.0
 -0.36173124201E+000 -0.53230289007E+000 0.0
 -0.33066586465E+000 -0.53190448834E+000 0.0
 -0.30282204007E+000 -0.51722414237E+000 0.0
 -0.28074573573E+000 -0.49768558494E+000 0.0
 -0.26148668461E+000 -0.47286273269E+000 0.0
 -0.24855024406E+000 -0.44657382284E+000 0.0
 -0.24044217895E+000 -0.42026621797E+000 0.0
 -0.23639093509E+000 -0.39459385825E+000 0.0
 -0.23543562227E+000 -0.36975197790E+000 0.0
 -0.23635616467E+000 -0.34553105938E+000 0.0
 -0.23756878251E+000 -0.32134932751E+000 0.0
 -0.23711159255E+000 -0.29629589440E+000 0.0
 -0.23275010541E+000 -0.26923065153E+000 0.0
 -0.22221303548E+000 -0.23896708356E+000 0.0
 -0.20346669428E+000 -0.20456214630E+000 0.0
 -0.17505404148E+000 -0.16544515130E+000 0.0
 -0.13641278530E+000 -0.12189789965E+000 0.0
 -0.87911583771E-001 -0.75324080497E-001 0.0
 -0.32338516540E-001 -0.27713498039E-001 0.0
  0.20395617396E-001  0.10329021097E-001 0.0
  0.14703869058E-001  0.87478637221E-002 0.0
  0.58609740770E-002  0.22345269837E-002 0.0
 -0.34957019749E-002 -0.32417030535E-002 0.0
 -0.49891891684E-002 -0.29445525814E-002 0.0
  0.00000000000E+000  0.00000000000E+000 0.0
 0.0 0.0 0.0
 0.0 0.0 0.0
 0.0 0.0 0.0
 0.0 0.0 0.0
 0.0 0.0 0.0
 0.0 0.0 0.0
 0.0 0.0 0.0
 0.0 0.0 0.0
 0.0 0.0 0.0
 0.0 0.0 0.0
 0.0 0.0 0.0
 0.0 0.0 0.0
  0.00000000000E+000  0.00000000000E+000 0.0
 -0.14469582497E+000 -0.74835296545E-001 0.0
 -0.23889421393E+000 -0.14632594824E+000 0.0
 -0.30704013912E+000 -0.20815303778E+000 0.0
 -0.35728967155E+000 -0.26244067549E+000 0.0
 -0.38823778138E+000 -0.30759934658E+000 0.0
 -0.40277360154E+000 -0.34313258377E+000 0.0
 -0.40476498595E+000 -0.37000545425E+000 0.0
 -0.39821321990E+000 -0.38978004926E+000 0.0
 -0.38664273572E+000 -0.40398530187E+000 0.0
 -0.37248425833E+000 -0.41356916063E+000 0.0
 -0.35666440792E+000 -0.41914066331E+000 0.0
 -0.34173460612E+000 -0.41887456181E+000 0.0
 -0.32615724750E+000 -0.41511453836E+000 0.0
 -0.31142893765E+000 -0.40647323588E+000 0.0
 -0.29883094521E+000 -0.39462340865E+000 0.0
 -0.28801546814E+000 -0.38007042162E+000 0.0
 -0.28005297933E+000 -0.36426858741E+000 0.0
 -0.27492605429E+000 -0.34823938850E+000 0.0
 -0.27252879221E+000 -0.33262342505E+000 0.0
 -0.27246699910E+000 -0.31764961827E+000 0.0
 -0.27396467647E+000 -0.30309231464E+000 0.0
 -0.27575126246E+000 -0.28827074331E+000 0.0
 -0.27601717984E+000 -0.27212026893E+000 0.0
 -0.27249813529E+000 -0.25335295612E+000 0.0
 -0.26272124382E+000 -0.23066852453E+000 0.0
 -0.24432642440E+000 -0.20302736662E+000 0.0
 -0.21537252338E+000 -0.16981147951E+000 0.0
 -0.17465839511E+000 -0.13094696217E+000 0.0
 -0.12183159443E+000 -0.87507779404E-001 0.0
 -0.58812165143E-001 -0.41296774546E-001 0.0
  0.95248435187E-002  0.41579258199E-002 0.0
  0.14717944692E-001  0.11891316277E-001 0.0
  0.89962370414E-002  0.76340877079E-002 0.0
  0.26565431204E-004  0.21914298123E-002 0.0
  0.00000000000E+000  0.00000000000E+000 0.0
 0.0 0.0 0.0
 0.0 0.0 0.0
 0.0 0.0 0.0
 0.0 0.0 0.0
 0.0 0.0 0.0
 0.0 0.0 0.0
 0.0 0.0 0.0
 0.0 0.0 0.0
 0.0 0.0 0.0
 0.0 0.0 0.0
 0.0 0.0 0.0
 0.0 0.0 0.0
  0.00000000000E+000  0.00000000000E+000 0.0
 -0.31252683253E-001 -0.61846163097E-001 0.0
 -0.11831257009E+000 -0.11934156068E+000 0.0
 -0.19562108346E+000 -0.17592368134E+000 0.0
 -0.25845051808E+000 -0.22919829059E+000 0.0
 -0.30722516148E+000 -0.27599469066E+000 0.0
 -0.34077554625E+000 -0.31376253499E+000 0.0
 -0.36033402794E+000 -0.34157492194E+000 0.0
 -0.36822322812E+000 -0.35997920140E+000 0.0
 -0.36755047168E+000 -0.37064446548E+000 0.0
 -0.36173010329E+000 -0.37570314214E+000 0.0
 -0.35384059430E+000 -0.37678513572E+000 0.0
 -0.34528142018E+000 -0.37542742833E+000 0.0
 -0.33679228201E+000 -0.37110648588E+000 0.0
 -0.32895571547E+000 -0.36423473363E+000 0.0
 -0.32158857163E+000 -0.35462625656E+000 0.0
 -0.31483027804E+000 -0.34279422562E+000 0.0
 -0.30868185943E+000 -0.32928560393E+000 0.0
 -0.30363686503E+000 -0.31500337717E+000 0.0
 -0.30006293249E+000 -0.30081465322E+000 0.0
 -0.29827211211E+000 -0.28740748539E+000 0.0
 -0.29835645183E+000 -0.27514943388E+000 0.0
 -0.29999762920E+000 -0.26395021256E+000 0.0
 -0.30224446950E+000 -0.25317376662E+000 0.0
 -0.30337069377E+000 -0.24166805555E+000 0.0
 -0.30093139301E+000 -0.22795887537E+000 0.0
 -0.29207375984E+000 -0.21054670881E+000 0.0
 -0.27400935196E+000 -0.18821192885E+000 0.0
 -0.24440162310E+000 -0.16021251451E+000 0.0
 -0.20160503057E+000 -0.12622031422E+000 0.0
 -0.14475383410E+000 -0.86749174566E-001 0.0
 -0.74704411170E-001 -0.44089242505E-001 0.0
  0.14462573660E-002 -0.26243926778E-002 0.0
  0.16296099662E-001  0.62531834497E-002 0.0
  0.49512289229E-002  0.24325335115E-002 0.0
  0.00000000000E+000  0.00000000000E+000 0.0
 0.0 0.0 0.0
 0.0 0.0 0.0
 0.0 0.0 0.0
 0.0 0.0 0.0
 0.0 0.0 0.0
 0.0 0.0 0.0
 0.0 0.0 0.0
 0.0 0.0 0.0
 0.0 0.0 0.0
 0.0 0.0 0.0
 0.0 0.0 0.0
 0.0 0.0 0.0
  0.00000000000E+000  0.00000000000E+000 0.0
  0.81192744643E-001 -0.77304976912E-002 0.0
 -0.14020981701E-001 -0.46082921360E-001 0.0
 -0.87868686584E-001 -0.95226049060E-001 0.0
 -0.15519949271E+000 -0.14747624820E+000 0.0
 -0.21608423609E+000 -0.19845058273E+000 0.0
 -0.26755342884E+000 -0.24378843590E+000 0.0
 -0.30737203859E+000 -0.28022840611E+000 0.0
 -0.33493480724E+000 -0.30617750797E+000 0.0
 -0.35069420583E+000 -0.32167529572E+000 0.0
 -0.35663959191E+000 -0.32834173513E+000 0.0
 -0.35588405529E+000 -0.32888066308E+000 0.0
 -0.35188267873E+000 -0.32581210810E+000 0.0
 -0.34688346264E+000 -0.32089034810E+000 0.0
 -0.34238622724E+000 -0.31499620659E+000 0.0
 -0.33874120331E+000 -0.30820291022E+000 0.0
 -0.33542652017E+000 -0.30009630876E+000 0.0
 -0.33202375049E+000 -0.29052353745E+000 0.0
 -0.32837391980E+000 -0.27964858573E+000 0.0
 -0.32475033037E+000 -0.26798915582E+000 0.0
 -0.32162922815E+000 -0.25621995454E+000 0.0
 -0.31957953593E+000 -0.24501096535E+000 0.0
 -0.31908015063E+000 -0.23485612167E+000 0.0
 -0.32023732658E+000 -0.22587084727E+000 0.0
 -0.32240449717E+000 -0.21760501745E+000 0.0
 -0.32387639681E+000 -0.20898765471E+000 0.0
 -0.32189469470E+000 -0.19850754107E+000 0.0
 -0.31308340159E+000 -0.18459579320E+000 0.0
 -0.29418903769E+000 -0.16601484850E+000 0.0
 -0.26266146151E+000 -0.14205414918E+000 0.0
 -0.21658380196E+000 -0.11234550277E+000 0.0
 -0.15422991292E+000 -0.76807063916E-001 0.0
 -0.75572763783E-001 -0.37477029026E-001 0.0
  0.10429086625E-001  0.11646495228E-002 0.0
  0.78854243891E-002  0.42961274789E-002 0.0
  0.00000000000E+000  0.00000000000E+000 0.0
 0.0 0.0 0.0
 0.0 0.0 0.0
 0.0 0.0 0.0
 0.0 0.0 0.0
 0.0 0.0 0.0
 0.0 0.0 0.0
 0.0 0.0 0.0
 0.0 0.0 0.0
 0.0 0.0 0.0
 0.0 0.0 0.0
 0.0 0.0 0.0
 0.0 0.0 0.0
  0.00000000000E+000  0.00000000000E+000 0.0
  0.14191762266E+000  0.41621711300E-002 0.0
  0.44536341589E-001 -0.60003558138E-002 0.0
 -0.38863778636E-002 -0.17028679851E-001 0.0
 -0.55567680025E-001 -0.55326321195E-001 0.0
 -0.11487111567E+000 -0.10610028938E+000 0.0
 -0.17664003886E+000 -0.15760807131E+000 0.0
 -0.23339038517E+000 -0.20424402299E+000 0.0
 -0.28227948017E+000 -0.24245505471E+000 0.0
 -0.31998858909E+000 -0.26960595947E+000 0.0
 -0.34484653206E+000 -0.28510970692E+000 0.0
 -0.35752781070E+000 -0.29037492741E+000 0.0
 -0.36098441311E+000 -0.28838883378E+000 0.0
 -0.35917760833E+000 -0.28210608273E+000 0.0
 -0.35546026882E+000 -0.27441385463E+000 0.0
 -0.35243807822E+000 -0.26682870569E+000 0.0
 -0.35059623427E+000 -0.25952159728E+000 0.0
 -0.34926939824E+000 -0.25196490284E+000 0.0
 -0.34764682493E+000 -0.24367700664E+000 0.0
 -0.34531443024E+000 -0.23452808514E+000 0.0
 -0.34238703602E+000 -0.22476110065E+000 0.0
 -0.33934810703E+000 -0.21485131745E+000 0.0
 -0.33690495844E+000 -0.20536795508E+000 0.0
 -0.33580161529E+000 -0.19681729055E+000 0.0
 -0.33645909184E+000 -0.18941523747E+000 0.0
 -0.33842053491E+000 -0.18282926910E+000 0.0
 -0.33985397100E+000 -0.17605007224E+000 0.0
 -0.33751151700E+000 -0.16755828941E+000 0.0
 -0.32736557624E+000 -0.15579199228E+000 0.0
 -0.30575125931E+000 -0.13965808494E+000 0.0
 -0.27027007373E+000 -0.11865877675E+000 0.0
 -0.21909222881E+000 -0.92397742004E-001 0.0
 -0.14912706750E+000 -0.60291015353E-001 0.0
 -0.60078632490E-001 -0.24960061174E-001 0.0
  0.21666627500E-001  0.40273789873E-002 0.0
  0.00000000000E+000  0.00000000000E+000 0.0
 0.0 0.0 0.0
 0.0 0.0 0.0
 0.0 0.0 0.0
 0.0 0.0 0.0
 0.0 0.0 0.0
 0.0 0.0 0.0
 0.0 0.0 0.0
 0.0 0.0 0.0
 0.0 0.0 0.0
 0.0 0.0 0.0
 0.0 0.0 0.0
 0.0 0.0 0.0
  0.00000000000E+000  0.00000000000E+000 0.0
  0.15105997743E+000  0.38019613894E-002 0.0
  0.57759827921E-001  0.33125386817E-002 0.0
  0.40508295496E-003  0.38189792277E-002 0.0
  0.93032593449E-002  0.21742552550E-001 0.0
 -0.10587642423E-001 -0.23386760042E-002 0.0
 -0.71291441068E-001 -0.54386850535E-001 0.0
 -0.13810619495E+000 -0.10802865858E+000 0.0
 -0.20378771052E+000 -0.15639395594E+000 0.0
 -0.26389286194E+000 -0.19660483795E+000 0.0
 -0.31306365645E+000 -0.22541538044E+000 0.0
 -0.34727965885E+000 -0.24166579854E+000 0.0
 -0.36602569778E+000 -0.24673526853E+000 0.0
 -0.37273770563E+000 -0.24359445805E+000 0.0
 -0.37133491780E+000 -0.23595254509E+000 0.0
 -0.36743810157E+000 -0.22726035543E+000 0.0
 -0.36441190319E+000 -0.21930717201E+000 0.0
 -0.36300644093E+000 -0.21229194514E+000 0.0
 -0.36236904301E+000 -0.20560188107E+000 0.0
 -0.36138258478E+000 -0.19861601332E+000 0.0
 -0.35945753729E+000 -0.19107475464E+000 0.0
 -0.35663744672E+000 -0.18308167685E+000 0.0
 -0.35342150756E+000 -0.17497532319E+000 0.0
 -0.35061504071E+000 -0.16721791298E+000 0.0
 -0.34914061572E+000 -0.16026317545E+000 0.0
 -0.34958226341E+000 -0.15432486122E+000 0.0
 -0.35143801244E+000 -0.14908641556E+000 0.0
 -0.35246204934E+000 -0.14354579365E+000 0.0
 -0.34866623750E+000 -0.13619597053E+000 0.0
 -0.33528231201E+000 -0.12557172339E+000 0.0
 -0.30848959293E+000 -0.11090105001E+000 0.0
 -0.26670345701E+000 -0.92097729451E-001 0.0
 -0.20813683140E+000 -0.68581691822E-001 0.0
 -0.12563362081E+000 -0.39351088207E-001 0.0
 -0.20859351946E-001 -0.94747747024E-002 0.0
  0.00000000000E+000  0.00000000000E+000 0.0
 0.0 0.0 0.0
 0.0 0.0 0.0
 0.0 0.0 0.0
 0.0 0.0 0.0
 0.0 0.0 0.0
 0.0 0.0 0.0
 0.0 0.0 0.0
 0.0 0.0 0.0
 0.0 0.0 0.0
 0.0 0.0 0.0
 0.0 0.0 0.0
 0.0 0.0 0.0
  0.00000000000E+000  0.00000000000E+000 0.0
  0.14823992756E+000  0.89552004030E-003 0.0
  0.62080674110E-001  0.84409672405E-003 0.0
 -0.86267662908E-002 -0.10520407894E-002 0.0
 -0.15522284319E-001 -0.19547736750E-002 0.0
  0.77840736640E-002  0.88632326019E-002 0.0
  0.21968872621E-001  0.16032945823E-001 0.0
 -0.37798800718E-001 -0.22135113157E-001 0.0
 -0.10989554796E+000 -0.70568925245E-001 0.0
 -0.18514839699E+000 -0.11609498618E+000 0.0
 -0.25670511338E+000 -0.15439764271E+000 0.0
 -0.31635548688E+000 -0.18159307030E+000 0.0
 -0.35749170472E+000 -0.19626410715E+000 0.0
 -0.38030555639E+000 -0.19998099707E+000 0.0
 -0.38672991981E+000 -0.19569617321E+000 0.0
 -0.38399969637E+000 -0.18771555445E+000 0.0
 -0.37897601747E+000 -0.17938024651E+000 0.0
 -0.37548201933E+000 -0.17222677877E+000 0.0
 -0.37408407966E+000 -0.16624387074E+000 0.0
 -0.37353415638E+000 -0.16073889906E+000 0.0