# vtk DataFile Version 2.0
obtained via hydraulicmodule
ASCII
DATASET UNSTRUCTURED_GRID
POINTS 303 double
 0.00000000e+00  0.00000000e+00  0.00000000e+00
 2.00000000e+01  0.00000000e+00  0.00000000e+00
 2.00000000e+01  1.00000000e+00  0.00000000e+00
 0.00000000e+00  1.00000000e+00  0.00000000e+00
 2.00000000e-01  0.00000000e+00  0.00000000e+00
 4.00000000e-01  0.00000000e+00  0.00000000e+00
 6.00000000e-01  0.00000000e+00  0.00000000e+00
 8.00000000e-01  0.00000000e+00  0.00000000e+00
 1.00000000e+00  0.00000000e+00  0.00000000e+00
 1.20000000e+00  0.00000000e+00  0.00000000e+00
 1.40000000e+00  0.00000000e+00  0.00000000e+00
 1.60000000e+00  0.00000000e+00  0.00000000e+00
 1.80000000e+00  0.00000000e+00  0.00000000e+00
 2.00000000e+00  0.00000000e+00  0.00000000e+00
 2.20000000e+00  0.00000000e+00  0.00000000e+00
 2.40000000e+00  0.00000000e+00  0.00000000e+00
 2.60000000e+00  0.00000000e+00  0.00000000e+00
 2.80000000e+00  0.00000000e+00  0.00000000e+00
 3.00000000e+00  0.00000000e+00  0.00000000e+00
 3.20000000e+00  0.00000000e+00  0.00000000e+00
 3.40000000e+00  0.00000000e+00  0.00000000e+00
 3.60000000e+00  0.00000000e+00  0.00000000e+00
 3.80000000e+00  0.00000000e+00  0.00000000e+00
 4.00000000e+00  0.00000000e+00  0.00000000e+00
 4.20000000e+00  0.00000000e+00  0.00000000e+00
 4.40000000e+00  0.00000000e+00  0.00000000e+00
 4.60000000e+00  0.00000000e+00  0.00000000e+00
 4.80000000e+00  0.00000000e+00  0.00000000e+00
 5.00000000e+00  0.00000000e+00  0.00000000e+00
 5.20000000e+00  0.00000000e+00  0.00000000e+00
 5.40000000e+00  0.00000000e+00  0.00000000e+00
 5.60000000e+00  0.00000000e+00  0.00000000e+00
 5.80000000e+00  0.00000000e+00  0.00000000e+00
 6.00000000e+00  0.00000000e+00  0.00000000e+00
 6.20000000e+00  0.00000000e+00  0.00000000e+00
 6.40000000e+00  0.00000000e+00  0.00000000e+00
 6.60000000e+00  0.00000000e+00  0.00000000e+00
 6.80000000e+00  0.00000000e+00  0.00000000e+00
 7.00000000e+00  0.00000000e+00  0.00000000e+00
 7.20000000e+00  0.00000000e+00  0.00000000e+00
 7.40000000e+00  0.00000000e+00  0.00000000e+00
 7.60000000e+00  0.00000000e+00  0.00000000e+00
 7.80000000e+00  0.00000000e+00  0.00000000e+00
 8.00000000e+00  0.00000000e+00  0.00000000e+00
 8.20000000e+00  0.00000000e+00  0.00000000e+00
 8.40000000e+00  0.00000000e+00  0.00000000e+00
 8.60000000e+00  0.00000000e+00  0.00000000e+00
 8.80000000e+00  0.00000000e+00  0.00000000e+00
 9.00000000e+00  0.00000000e+00  0.00000000e+00
 9.20000000e+00  0.00000000e+00  0.00000000e+00
 9.40000000e+00  0.00000000e+00  0.00000000e+00
 9.60000000e+00  0.00000000e+00  0.00000000e+00
 9.80000000e+00  0.00000000e+00  0.00000000e+00
 1.00000000e+01  0.00000000e+00  0.00000000e+00
 1.02000000e+01  0.00000000e+00  0.00000000e+00
 1.04000000e+01  0.00000000e+00  0.00000000e+00
 1.06000000e+01  0.00000000e+00  0.00000000e+00
 1.08000000e+01  0.00000000e+00  0.00000000e+00
 1.10000000e+01  0.00000000e+00  0.00000000e+00
 1.12000000e+01  0.00000000e+00  0.00000000e+00
 1.14000000e+01  0.00000000e+00  0.00000000e+00
 1.16000000e+01  0.00000000e+00  0.00000000e+00
 1.18000000e+01  0.00000000e+00  0.00000000e+00
 1.20000000e+01  0.00000000e+00  0.00000000e+00
 1.22000000e+01  0.00000000e+00  0.00000000e+00
 1.24000000e+01  0.00000000e+00  0.00000000e+00
 1.26000000e+01  0.00000000e+00  0.00000000e+00
 1.28000000e+01  0.00000000e+00  0.00000000e+00
 1.30000000e+01  0.00000000e+00  0.00000000e+00
 1.32000000e+01  0.00000000e+00  0.00000000e+00
 1.34000000e+01  0.00000000e+00  0.00000000e+00
 1.36000000e+01  0.00000000e+00  0.00000000e+00
 1.38000000e+01  0.00000000e+00  0.00000000e+00
 1.40000000e+01  0.00000000e+00  0.00000000e+00
 1.42000000e+01  0.00000000e+00  0.00000000e+00
 1.44000000e+01  0.00000000e+00  0.00000000e+00
 1.46000000e+01  0.00000000e+00  0.00000000e+00
 1.48000000e+01  0.00000000e+00  0.00000000e+00
 1.50000000e+01  0.00000000e+00  0.00000000e+00
 1.52000000e+01  0.00000000e+00  0.00000000e+00
 1.54000000e+01  0.00000000e+00  0.00000000e+00
 1.56000000e+01  0.00000000e+00  0.00000000e+00
 1.58000000e+01  0.00000000e+00  0.00000000e+00
 1.60000000e+01  0.00000000e+00  0.00000000e+00
 1.62000000e+01  0.00000000e+00  0.00000000e+00
 1.64000000e+01  0.00000000e+00  0.00000000e+00
 1.66000000e+01  0.00000000e+00  0.00000000e+00
 1.68000000e+01  0.00000000e+00  0.00000000e+00
 1.70000000e+01  0.00000000e+00  0.00000000e+00
 1.72000000e+01  0.00000000e+00  0.00000000e+00
 1.74000000e+01  0.00000000e+00  0.00000000e+00
 1.76000000e+01  0.00000000e+00  0.00000000e+00
 1.78000000e+01  0.00000000e+00  0.00000000e+00
 1.80000000e+01  0.00000000e+00  0.00000000e+00
 1.82000000e+01  0.00000000e+00  0.00000000e+00
 1.84000000e+01  0.00000000e+00  0.00000000e+00
 1.86000000e+01  0.00000000e+00  0.00000000e+00
 1.88000000e+01  0.00000000e+00  0.00000000e+00
 1.90000000e+01  0.00000000e+00  0.00000000e+00
 1.92000000e+01  0.00000000e+00  0.00000000e+00
 1.94000000e+01  0.00000000e+00  0.00000000e+00
 1.96000000e+01  0.00000000e+00  0.00000000e+00
 1.98000000e+01  0.00000000e+00  0.00000000e+00
 2.00000000e+01  5.00000000e-01  0.00000000e+00
 1.98000000e+01  1.00000000e+00  0.00000000e+00
 1.96000000e+01  1.00000000e+00  0.00000000e+00
 1.94000000e+01  1.00000000e+00  0.00000000e+00
 1.92000000e+01  1.00000000e+00  0.00000000e+00
 1.90000000e+01  1.00000000e+00  0.00000000e+00
 1.88000000e+01  1.00000000e+00  0.00000000e+00
 1.86000000e+01  1.00000000e+00  0.00000000e+00
 1.84000000e+01  1.00000000e+00  0.00000000e+00
 1.82000000e+01  1.00000000e+00  0.00000000e+00
 1.80000000e+01  1.00000000e+00  0.00000000e+00
 1.78000000e+01  1.00000000e+00  0.00000000e+00
 1.76000000e+01  1.00000000e+00  0.00000000e+00
 1.74000000e+01  1.00000000e+00  0.00000000e+00
 1.72000000e+01  1.00000000e+00  0.00000000e+00
 1.70000000e+01  1.00000000e+00  0.00000000e+00
 1.68000000e+01  1.00000000e+00  0.00000000e+00
 1.66000000e+01  1.00000000e+00  0.00000000e+00
 1.64000000e+01  1.00000000e+00  0.00000000e+00
 1.62000000e+01  1.00000000e+00  0.00000000e+00
 1.60000000e+01  1.00000000e+00  0.00000000e+00
 1.58000000e+01  1.00000000e+00  0.00000000e+00
 1.56000000e+01  1.00000000e+00  0.00000000e+00
 1.54000000e+01  1.00000000e+00  0.00000000e+00
 1.52000000e+01  1.00000000e+00  0.00000000e+00
 1.50000000e+01  1.00000000e+00  0.00000000e+00
 1.48000000e+01  1.00000000e+00  0.00000000e+00
 1.46000000e+01  1.00000000e+00  0.00000000e+00
 1.44000000e+01  1.00000000e+00  0.00000000e+00
 1.42000000e+01  1.00000000e+00  0.00000000e+00
 1.40000000e+01  1.00000000e+00  0.00000000e+00
 1.38000000e+01  1.00000000e+00  0.00000000e+00
 1.36000000e+01  1.00000000e+00  0.00000000e+00
 1.34000000e+01  1.00000000e+00  0.00000000e+00
 1.32000000e+01  1.00000000e+00  0.00000000e+00
 1.30000000e+01  1.00000000e+00  0.00000000e+00
 1.28000000e+01  1.00000000e+00  0.00000000e+00
 1.26000000e+01  1.00000000e+00  0.00000000e+00
 1.24000000e+01  1.00000000e+00  0.00000000e+00
 1.22000000e+01  1.00000000e+00  0.00000000e+00
 1.20000000e+01  1.00000000e+00  0.00000000e+00
 1.18000000e+01  1.00000000e+00  0.00000000e+00
 1.16000000e+01  1.00000000e+00  0.00000000e+00
 1.14000000e+01  1.00000000e+00  0.00000000e+00
 1.12000000e+01  1.00000000e+00  0.00000000e+00
 1.10000000e+01  1.00000000e+00  0.00000000e+00
 1.08000000e+01  1.00000000e+00  0.00000000e+00
 1.06000000e+01  1.00000000e+00  0.00000000e+00
 1.04000000e+01  1.00000000e+00  0.00000000e+00
 1.02000000e+01  1.00000000e+00  0.00000000e+00
 1.00000000e+01  1.00000000e+00  0.00000000e+00
 9.80000000e+00  1.00000000e+00  0.00000000e+00
 9.60000000e+00  1.00000000e+00  0.00000000e+00
 9.40000000e+00  1.00000000e+00  0.00000000e+00
 9.20000000e+00  1.00000000e+00  0.00000000e+00
 9.00000000e+00  1.00000000e+00  0.00000000e+00
 8.80000000e+00  1.00000000e+00  0.00000000e+00
 8.60000000e+00  1.00000000e+00  0.00000000e+00
 8.40000000e+00  1.00000000e+00  0.00000000e+00
 8.20000000e+00  1.00000000e+00  0.00000000e+00
 8.00000000e+00  1.00000000e+00  0.00000000e+00
 7.80000000e+00  1.00000000e+00  0.00000000e+00
 7.60000000e+00  1.00000000e+00  0.00000000e+00
 7.40000000e+00  1.00000000e+00  0.00000000e+00
 7.20000000e+00  1.00000000e+00  0.00000000e+00
 7.00000000e+00  1.00000000e+00  0.00000000e+00
 6.80000000e+00  1.00000000e+00  0.00000000e+00
 6.60000000e+00  1.00000000e+00  0.00000000e+00
 6.40000000e+00  1.00000000e+00  0.00000000e+00
 6.20000000e+00  1.00000000e+00  0.00000000e+00
 6.00000000e+00  1.00000000e+00  0.00000000e+00
 5.80000000e+00  1.00000000e+00  0.00000000e+00
 5.60000000e+00  1.00000000e+00  0.00000000e+00
 5.40000000e+00  1.00000000e+00  0.00000000e+00
 5.20000000e+00  1.00000000e+00  0.00000000e+00
 5.00000000e+00  1.00000000e+00  0.00000000e+00
 4.80000000e+00  1.00000000e+00  0.00000000e+00
 4.60000000e+00  1.00000000e+00  0.00000000e+00
 4.40000000e+00  1.00000000e+00  0.00000000e+00
 4.20000000e+00  1.00000000e+00  0.00000000e+00
 4.00000000e+00  1.00000000e+00  0.00000000e+00
 3.80000000e+00  1.00000000e+00  0.00000000e+00
 3.60000000e+00  1.00000000e+00  0.00000000e+00
 3.40000000e+00  1.00000000e+00  0.00000000e+00
 3.20000000e+00  1.00000000e+00  0.00000000e+00
 3.00000000e+00  1.00000000e+00  0.00000000e+00
 2.80000000e+00  1.00000000e+00  0.00000000e+00
 2.60000000e+00  1.00000000e+00  0.00000000e+00
 2.40000000e+00  1.00000000e+00  0.00000000e+00
 2.20000000e+00  1.00000000e+00  0.00000000e+00
 2.00000000e+00  1.00000000e+00  0.00000000e+00
 1.80000000e+00  1.00000000e+00  0.00000000e+00
 1.60000000e+00  1.00000000e+00  0.00000000e+00
 1.40000000e+00  1.00000000e+00  0.00000000e+00
 1.20000000e+00  1.00000000e+00  0.00000000e+00
 1.00000000e+00  1.00000000e+00  0.00000000e+00
 8.00000000e-01  1.00000000e+00  0.00000000e+00
 6.00000000e-01  1.00000000e+00  0.00000000e+00
 4.00000000e-01  1.00000000e+00  0.00000000e+00
 2.00000000e-01  1.00000000e+00  0.00000000e+00
 0.00000000e+00  5.00000000e-01  0.00000000e+00
 2.00000000e-01  5.00000000e-01  0.00000000e+00
 4.00000000e-01  5.00000000e-01  0.00000000e+00
 6.00000000e-01  5.00000000e-01  0.00000000e+00
 8.00000000e-01  5.00000000e-01  0.00000000e+00
 1.00000000e+00  5.00000000e-01  0.00000000e+00
 1.20000000e+00  5.00000000e-01  0.00000000e+00
 1.40000000e+00  5.00000000e-01  0.00000000e+00
 1.60000000e+00  5.00000000e-01  0.00000000e+00
 1.80000000e+00  5.00000000e-01  0.00000000e+00
 2.00000000e+00  5.00000000e-01  0.00000000e+00
 2.20000000e+00  5.00000000e-01  0.00000000e+00
 2.40000000e+00  5.00000000e-01  0.00000000e+00
 2.60000000e+00  5.00000000e-01  0.00000000e+00
 2.80000000e+00  5.00000000e-01  0.00000000e+00
 3.00000000e+00  5.00000000e-01  0.00000000e+00
 3.20000000e+00  5.00000000e-01  0.00000000e+00
 3.40000000e+00  5.00000000e-01  0.00000000e+00
 3.60000000e+00  5.00000000e-01  0.00000000e+00
 3.80000000e+00  5.00000000e-01  0.00000000e+00
 4.00000000e+00  5.00000000e-01  0.00000000e+00
 4.20000000e+00  5.00000000e-01  0.00000000e+00
 4.40000000e+00  5.00000000e-01  0.00000000e+00
 4.60000000e+00  5.00000000e-01  0.00000000e+00
 4.80000000e+00  5.00000000e-01  0.00000000e+00
 5.00000000e+00  5.00000000e-01  0.00000000e+00
 5.20000000e+00  5.00000000e-01  0.00000000e+00
 5.40000000e+00  5.00000000e-01  0.00000000e+00
 5.60000000e+00  5.00000000e-01  0.00000000e+00
 5.80000000e+00  5.00000000e-01  0.00000000e+00
 6.00000000e+00  5.00000000e-01  0.00000000e+00
 6.20000000e+00  5.00000000e-01  0.00000000e+00
 6.40000000e+00  5.00000000e-01  0.00000000e+00
 6.60000000e+00  5.00000000e-01  0.00000000e+00
 6.80000000e+00  5.00000000e-01  0.00000000e+00
 7.00000000e+00  5.00000000e-01  0.00000000e+00
 7.20000000e+00  5.00000000e-01  0.00000000e+00
 7.40000000e+00  5.00000000e-01  0.00000000e+00
 7.60000000e+00  5.00000000e-01  0.00000000e+00
 7.80000000e+00  5.00000000e-01  0.00000000e+00
 8.00000000e+00  5.00000000e-01  0.00000000e+00
 8.20000000e+00  5.00000000e-01  0.00000000e+00
 8.40000000e+00  5.00000000e-01  0.00000000e+00
 8.60000000e+00  5.00000000e-01  0.00000000e+00
 8.80000000e+00  5.00000000e-01  0.00000000e+00
 9.00000000e+00  5.00000000e-01  0.00000000e+00
 9.20000000e+00  5.00000000e-01  0.00000000e+00
 9.40000000e+00  5.00000000e-01  0.00000000e+00
 9.60000000e+00  5.00000000e-01  0.00000000e+00
 9.80000000e+00  5.00000000e-01  0.00000000e+00
 1.00000000e+01  5.00000000e-01  0.00000000e+00
 1.02000000e+01  5.00000000e-01  0.00000000e+00
 1.04000000e+01  5.00000000e-01  0.00000000e+00
 1.06000000e+01  5.00000000e-01  0.00000000e+00
 1.08000000e+01  5.00000000e-01  0.00000000e+00
 1.10000000e+01  5.00000000e-01  0.00000000e+00
 1.12000000e+01  5.00000000e-01  0.00000000e+00
 1.14000000e+01  5.00000000e-01  0.00000000e+00
 1.16000000e+01  5.00000000e-01  0.00000000e+00
 1.18000000e+01  5.00000000e-01  0.00000000e+00
 1.20000000e+01  5.00000000e-01  0.00000000e+00
 1.22000000e+01  5.00000000e-01  0.00000000e+00
 1.24000000e+01  5.00000000e-01  0.00000000e+00
 1.26000000e+01  5.00000000e-01  0.00000000e+00
 1.28000000e+01  5.00000000e-01  0.00000000e+00
 1.30000000e+01  5.00000000e-01  0.00000000e+00
 1.32000000e+01  5.00000000e-01  0.00000000e+00
 1.34000000e+01  5.00000000e-01  0.00000000e+00
 1.36000000e+01  5.00000000e-01  0.00000000e+00
 1.38000000e+01  5.00000000e-01  0.00000000e+00
 1.40000000e+01  5.00000000e-01  0.00000000e+00
 1.42000000e+01  5.00000000e-01  0.00000000e+00
 1.44000000e+01  5.00000000e-01  0.00000000e+00
 1.46000000e+01  5.00000000e-01  0.00000000e+00
 1.48000000e+01  5.00000000e-01  0.00000000e+00
 1.50000000e+01  5.00000000e-01  0.00000000e+00
 1.52000000e+01  5.00000000e-01  0.00000000e+00
 1.54000000e+01  5.00000000e-01  0.00000000e+00
 1.56000000e+01  5.00000000e-01  0.00000000e+00
 1.58000000e+01  5.00000000e-01  0.00000000e+00
 1.60000000e+01  5.00000000e-01  0.00000000e+00
 1.62000000e+01  5.00000000e-01  0.00000000e+00
 1.64000000e+01  5.00000000e-01  0.00000000e+00
 1.66000000e+01  5.00000000e-01  0.00000000e+00
 1.68000000e+01  5.00000000e-01  0.00000000e+00
 1.70000000e+01  5.00000000e-01  0.00000000e+00
 1.72000000e+01  5.00000000e-01  0.00000000e+00
 1.74000000e+01  5.00000000e-01  0.00000000e+00
 1.76000000e+01  5.00000000e-01  0.00000000e+00
 1.78000000e+01  5.00000000e-01  0.00000000e+00
 1.80000000e+01  5.00000000e-01  0.00000000e+00
 1.82000000e+01  5.00000000e-01  0.00000000e+00
 1.84000000e+01  5.00000000e-01  0.00000000e+00
 1.86000000e+01  5.00000000e-01  0.00000000e+00
 1.88000000e+01  5.00000000e-01  0.00000000e+00
 1.90000000e+01  5.00000000e-01  0.00000000e+00
 1.92000000e+01  5.00000000e-01  0.00000000e+00
 1.94000000e+01  5.00000000e-01  0.00000000e+00
 1.96000000e+01  5.00000000e-01  0.00000000e+00
 1.98000000e+01  5.00000000e-01  0.00000000e+00
CELLS 204 1012
4 0 4 204 203
4 203 204 202 3
4 4 5 205 204
4 204 205 201 202
4 5 6 206 205
4 205 206 200 201
4 6 7 207 206
4 206 207 199 200
4 7 8 208 207
4 207 208 198 199
4 8 9 209 208
4 208 209 197 198
4 9 10 210 209
4 209 210 196 197
4 10 11 211 210
4 210 211 195 196
4 11 12 212 211
4 211 212 194 195
4 12 13 213 212
4 212 213 193 194
4 13 14 214 213
4 213 214 192 193
4 14 15 215 214
4 214 215 191 192
4 15 16 216 215
4 215 216 190 191
4 16 17 217 216
4 216 217 189 190
4 17 18 218 217
4 217 218 188 189
4 18 19 219 218
4 218 219 187 188
4 19 20 220 219
4 219 220 186 187
4 20 21 221 220
4 220 221 185 186
4 21 22 222 221
4 221 222 184 185
4 22 23 223 222
4 222 223 183 184
4 23 24 224 223
4 223 224 182 183
4 24 25 225 224
4 224 225 181 182
4 25 26 226 225
4 225 226 180 181
4 26 27 227 226
4 226 227 179 180
4 27 28 228 227
4 227 228 178 179
4 28 29 229 228
4 228 229 177 178
4 29 30 230 229
4 229 230 176 177
4 30 31 231 230
4 230 231 175 176
4 31 32 232 231
4 231 232 174 175
4 32 33 233 232
4 232 233 173 174
4 33 34 234 233
4 233 234 172 173
4 34 35 235 234
4 234 235 171 172
4 35 36 236 235
4 235 236 170 171
4 36 37 237 236
4 236 237 169 170
4 37 38 238 237
4 237 238 168 169
4 38 39 239 238
4 238 239 167 168
4 39 40 240 239
4 239 240 166 167
4 40 41 241 240
4 240 241 165 166
4 41 42 242 241
4 241 242 164 165
4 42 43 243 242
4 242 243 163 164
4 43 44 244 243
4 243 244 162 163
4 44 45 245 244
4 244 245 161 162
4 45 46 246 245
4 245 246 160 161
4 46 47 247 246
4 246 247 159 160
4 47 48 248 247
4 247 248 158 159
4 48 49 249 248
4 248 249 157 158
4 49 50 250 249
4 249 250 156 157
4 50 51 251 250
4 250 251 155 156
4 51 52 252 251
4 251 252 154 155
4 52 53 253 252
4 252 253 153 154
4 53 54 254 253
4 253 254 152 153
4 54 55 255 254
4 254 255 151 152
4 55 56 256 255
4 255 256 150 151
4 56 57 257 256
4 256 257 149 150
4 57 58 258 257
4 257 258 148 149
4 58 59 259 258
4 258 259 147 148
4 59 60 260 259
4 259 260 146 147
4 60 61 261 260
4 260 261 145 146
4 61 62 262 261
4 261 262 144 145
4 62 63 263 262
4 262 263 143 144
4 63 64 264 263
4 263 264 142 143
4 64 65 265 264
4 264 265 141 142
4 65 66 266 265
4 265 266 140 141
4 66 67 267 266
4 266 267 139 140
4 67 68 268 267
4 267 268 138 139
4 68 69 269 268
4 268 269 137 138
4 69 70 270 269
4 269 270 136 137
4 70 71 271 270
4 270 271 135 136
4 71 72 272 271
4 271 272 134 135
4 72 73 273 272
4 272 273 133 134
4 73 74 274 273
4 273 274 132 133
4 74 75 275 274
4 274 275 131 132
4 75 76 276 275
4 275 276 130 131
4 76 77 277 276
4 276 277 129 130
4 77 78 278 277
4 277 278 128 129
4 78 79 279 278
4 278 279 127 128
4 79 80 280 279
4 279 280 126 127
4 80 81 281 280
4 280 281 125 126
4 81 82 282 281
4 281 282 124 125
4 82 83 283 282
4 282 283 123 124
4 83 84 284 283
4 283 284 122 123
4 84 85 285 284
4 284 285 121 122
4 85 86 286 285
4 285 286 120 121
4 86 87 287 286
4 286 287 119 120
4 87 88 288 287
4 287 288 118 119
4 88 89 289 288
4 288 289 117 118
4 89 90 290 289
4 289 290 116 117
4 90 91 291 290
4 290 291 115 116
4 91 92 292 291
4 291 292 114 115
4 92 93 293 292
4 292 293 113 114
4 93 94 294 293
4 293 294 112 113
4 94 95 295 294
4 294 295 111 112
4 95 96 296 295
4 295 296 110 111
4 96 97 297 296
4 296 297 109 110
4 97 98 298 297
4 297 298 108 109
4 98 99 299 298
4 298 299 107 108
4 99 100 300 299
4 299 300 106 107
4 100 101 301 300
4 300 301 105 106
4 101 102 302 301
4 301 302 104 105
4 102 1 103 302
4 302 103 2 104
2 3 203
2 203 0
2 1 103
2 103 2
CELL_TYPES 204
9
9
9
9
9
9
9
9
9
9
9
9
9
9
9
9
9
9
9
9
9
9
9
9
9
9
9
9
9
9
9
9
9
9
9
9
9
9
9
9
9
9
9
9
9
9
9
9
9
9
9
9
9
9
9
9
9
9
9
9
9
9
9
9
9
9
9
9
9
9
9
9
9
9
9
9
9
9
9
9
9
9
9
9
9
9
9
9
9
9
9
9
9
9
9
9
9
9
9
9
9
9
9
9
9
9
9
9
9
9
9
9
9
9
9
9
9
9
9
9
9
9
9
9
9
9
9
9
9
9
9
9
9
9
9
9
9
9
9
9
9
9
9
9
9
9
9
9
9
9
9
9
9
9
9
9
9
9
9
9
9
9
9
9
9
9
9
9
9
9
9
9
9
9
9
9
9
9
9
9
9
9
9
9
9
9
9
9
9
9
9
9
9
9
9
9
9
9
9
9
3
3
3
3
POINT_DATA 303
VECTORS vectors float
 4.000000e-04 -2.466900e-16 0.000000e+00
  4.000000e-04 -2.455763e-16 0.000000e+00
  4.000000e-04 -2.459286e-16 0.000000e+00
  4.000000e-04 -2.465268e-16 0.000000e+00
  4.000000e-04 -1.954857e-16 0.000000e+00
  4.000000e-04 2.477407e-17 0.000000e+00
  4.000000e-04 1.706437e-16 0.000000e+00
  4.000000e-04 6.317616e-16 0.000000e+00
  4.000000e-04 -1.501281e-15 0.000000e+00
  4.000000e-04 8.757645e-16 0.000000e+00
  4.000000e-04 -3.741296e-16 0.000000e+00
  4.000000e-04 -1.261599e-16 0.000000e+00
  4.000000e-04 5.021995e-17 0.000000e+00
  4.000000e-04 -4.866247e-16 0.000000e+00
  4.000000e-04 -4.386135e-16 0.000000e+00
  4.000000e-04 -1.192997e-16 0.000000e+00
  4.000000e-04 -1.901510e-16 0.000000e+00
  4.000000e-04 -3.105039e-16 0.000000e+00
  4.000000e-04 -3.450534e-16 0.000000e+00
  4.000000e-04 -3.010915e-16 0.000000e+00
  4.000000e-04 -3.057242e-16 0.000000e+00
  4.000000e-04 -3.122351e-16 0.000000e+00
  4.000000e-04 -2.907101e-16 0.000000e+00
  4.000000e-04 -3.186508e-16 0.000000e+00
  4.000000e-04 -3.331856e-16 0.000000e+00
  4.000000e-04 -4.120991e-16 0.000000e+00
  4.000000e-04 -4.475055e-16 0.000000e+00
  4.000000e-04 -4.889797e-16 0.000000e+00
  4.000000e-04 -4.863980e-16 0.000000e+00
  4.000000e-04 -4.939098e-16 0.000000e+00
  4.000000e-04 -5.135266e-16 0.000000e+00
  4.000000e-04 -4.636191e-16 0.000000e+00
  4.000000e-04 -4.411115e-16 0.000000e+00
  4.000000e-04 -4.710356e-16 0.000000e+00
  4.000000e-04 -4.611227e-16 0.000000e+00
  4.000000e-04 -4.559424e-16 0.000000e+00
  4.000000e-04 -4.722288e-16 0.000000e+00
  4.000000e-04 -4.554975e-16 0.000000e+00
  4.000000e-04 -4.549308e-16 0.000000e+00
  4.000000e-04 -4.518359e-16 0.000000e+00
  4.000000e-04 -4.626993e-16 0.000000e+00
  4.000000e-04 -4.858736e-16 0.000000e+00
  4.000000e-04 -5.145283e-16 0.000000e+00
  4.000000e-04 -5.477083e-16 0.000000e+00
  4.000000e-04 -5.264319e-16 0.000000e+00
  4.000000e-04 -5.226940e-16 0.000000e+00
  4.000000e-04 -5.009671e-16 0.000000e+00
  4.000000e-04 -5.343764e-16 0.000000e+00
  4.000000e-04 -5.606129e-16 0.000000e+00
  4.000000e-04 -5.399636e-16 0.000000e+00
  4.000000e-04 -4.898005e-16 0.000000e+00
  4.000000e-04 -4.877996e-16 0.000000e+00
  4.000000e-04 -4.871189e-16 0.000000e+00
  4.000000e-04 -5.403155e-16 0.000000e+00
  4.000000e-04 -5.166903e-16 0.000000e+00
  4.000000e-04 -4.882219e-16 0.000000e+00
  4.000000e-04 -4.919919e-16 0.000000e+00
  4.000000e-04 -4.855643e-16 0.000000e+00
  4.000000e-04 -4.878553e-16 0.000000e+00
  4.000000e-04 -4.909608e-16 0.000000e+00
  4.000000e-04 -4.895271e-16 0.000000e+00
  4.000000e-04 -4.647218e-16 0.000000e+00
  4.000000e-04 -4.327577e-16 0.000000e+00
  4.000000e-04 -4.042994e-16 0.000000e+00
  4.000000e-04 -4.238474e-16 0.000000e+00
  4.000000e-04 -4.353884e-16 0.000000e+00
  4.000000e-04 -3.770926e-16 0.000000e+00
  4.000000e-04 -3.957424e-16 0.000000e+00
  4.000000e-04 -3.549615e-16 0.000000e+00
  4.000000e-04 -3.541187e-16 0.000000e+00
  4.000000e-04 -3.558638e-16 0.000000e+00
  4.000000e-04 -3.338995e-16 0.000000e+00
  4.000000e-04 -3.213168e-16 0.000000e+00
  4.000000e-04 -3.027821e-16 0.000000e+00
  4.000000e-04 -2.811105e-16 0.000000e+00
  4.000000e-04 -2.773197e-16 0.000000e+00
  4.000000e-04 -2.321466e-16 0.000000e+00
  4.000000e-04 -2.412075e-16 0.000000e+00
  4.000000e-04 -2.559948e-16 0.000000e+00
  4.000000e-04 -2.374804e-16 0.000000e+00
  4.000000e-04 -2.028152e-16 0.000000e+00
  4.000000e-04 -1.997248e-16 0.000000e+00
  4.000000e-04 -1.888374e-16 0.000000e+00
  4.000000e-04 -1.958294e-16 0.000000e+00
  4.000000e-04 -1.627694e-16 0.000000e+00
  4.000000e-04 -1.763822e-16 0.000000e+00
  4.000000e-04 -1.765119e-16 0.000000e+00
  4.000000e-04 -1.719961e-16 0.000000e+00
  4.000000e-04 -1.784629e-16 0.000000e+00
  4.000000e-04 -1.372575e-16 0.000000e+00
  4.000000e-04 -1.560724e-17 0.000000e+00
  4.000000e-04 4.679694e-17 0.000000e+00
  4.000000e-04 -3.139954e-16 0.000000e+00
  4.000000e-04 -4.319924e-16 0.000000e+00
  4.000000e-04 4.205009e-17 0.000000e+00
  4.000000e-04 -1.666853e-16 0.000000e+00
  4.000000e-04 -4.303745e-16 0.000000e+00
  4.000000e-04 8.525999e-16 0.000000e+00
  4.000000e-04 -1.412950e-15 0.000000e+00
  4.000000e-04 7.446880e-16 0.000000e+00
  4.000000e-04 2.927018e-16 0.000000e+00
  4.000000e-04 1.315483e-16 0.000000e+00
  4.000000e-04 -1.870795e-16 0.000000e+00
  4.000000e-04 3.521917e-16 0.000000e+00
  4.000000e-04 -1.894745e-16 0.000000e+00
  4.000000e-04 1.457133e-16 0.000000e+00
  4.000000e-04 3.279062e-16 0.000000e+00
  4.000000e-04 8.173259e-16 0.000000e+00
  4.000000e-04 -1.320385e-15 0.000000e+00
  4.000000e-04 9.875986e-16 0.000000e+00
  4.000000e-04 -2.669149e-16 0.000000e+00
  4.000000e-04 1.572069e-17 0.000000e+00
  4.000000e-04 2.511938e-16 0.000000e+00
  4.000000e-04 -2.388013e-16 0.000000e+00
  4.000000e-04 -9.030261e-17 0.000000e+00
  4.000000e-04 3.066201e-16 0.000000e+00
  4.000000e-04 2.539247e-16 0.000000e+00
  4.000000e-04 1.678477e-16 0.000000e+00
  4.000000e-04 1.551008e-16 0.000000e+00
  4.000000e-04 1.638587e-16 0.000000e+00
  4.000000e-04 1.747858e-16 0.000000e+00
  4.000000e-04 1.777088e-16 0.000000e+00
  4.000000e-04 1.677125e-16 0.000000e+00
  4.000000e-04 1.890304e-16 0.000000e+00
  4.000000e-04 1.775375e-16 0.000000e+00
  4.000000e-04 1.839660e-16 0.000000e+00
  4.000000e-04 1.836575e-16 0.000000e+00
  4.000000e-04 2.004035e-16 0.000000e+00
  4.000000e-04 2.237148e-16 0.000000e+00
  4.000000e-04 2.210196e-16 0.000000e+00
  4.000000e-04 2.255580e-16 0.000000e+00
  4.000000e-04 2.850223e-16 0.000000e+00
  4.000000e-04 2.643624e-16 0.000000e+00
  4.000000e-04 2.786182e-16 0.000000e+00
  4.000000e-04 2.947534e-16 0.000000e+00
  4.000000e-04 3.153505e-16 0.000000e+00
  4.000000e-04 3.375479e-16 0.000000e+00
  4.000000e-04 3.480273e-16 0.000000e+00
  4.000000e-04 3.288461e-16 0.000000e+00
  4.000000e-04 3.604941e-16 0.000000e+00
  4.000000e-04 3.548028e-16 0.000000e+00
  4.000000e-04 3.989667e-16 0.000000e+00
  4.000000e-04 3.959376e-16 0.000000e+00
  4.000000e-04 3.994528e-16 0.000000e+00
  4.000000e-04 4.288023e-16 0.000000e+00
  4.000000e-04 4.520449e-16 0.000000e+00
  4.000000e-04 4.694586e-16 0.000000e+00
  4.000000e-04 4.943156e-16 0.000000e+00
  4.000000e-04 4.885453e-16 0.000000e+00
  4.000000e-04 4.944817e-16 0.000000e+00
  4.000000e-04 5.017347e-16 0.000000e+00
  4.000000e-04 5.060078e-16 0.000000e+00
  4.000000e-04 5.034190e-16 0.000000e+00
  4.000000e-04 5.483210e-16 0.000000e+00
  4.000000e-04 5.291178e-16 0.000000e+00
  4.000000e-04 5.180214e-16 0.000000e+00
  4.000000e-04 5.103521e-16 0.000000e+00
  4.000000e-04 5.685966e-16 0.000000e+00
  4.000000e-04 5.638032e-16 0.000000e+00
  4.000000e-04 5.637962e-16 0.000000e+00
  4.000000e-04 5.384189e-16 0.000000e+00
  4.000000e-04 5.536549e-16 0.000000e+00
  4.000000e-04 5.586937e-16 0.000000e+00
  4.000000e-04 5.805194e-16 0.000000e+00
  4.000000e-04 5.599173e-16 0.000000e+00
  4.000000e-04 5.108150e-16 0.000000e+00
  4.000000e-04 5.094196e-16 0.000000e+00
  4.000000e-04 4.832504e-16 0.000000e+00
  4.000000e-04 5.226068e-16 0.000000e+00
  4.000000e-04 5.333582e-16 0.000000e+00
  4.000000e-04 5.273331e-16 0.000000e+00
  4.000000e-04 5.588053e-16 0.000000e+00
  4.000000e-04 5.539155e-16 0.000000e+00
  4.000000e-04 5.790159e-16 0.000000e+00
  4.000000e-04 5.580362e-16 0.000000e+00
  4.000000e-04 5.663162e-16 0.000000e+00
  4.000000e-04 6.223368e-16 0.000000e+00
  4.000000e-04 6.003906e-16 0.000000e+00
  4.000000e-04 5.477997e-16 0.000000e+00
  4.000000e-04 5.351344e-16 0.000000e+00
  4.000000e-04 5.021835e-16 0.000000e+00
  4.000000e-04 4.634492e-16 0.000000e+00
  4.000000e-04 4.005139e-16 0.000000e+00
  4.000000e-04 4.222872e-16 0.000000e+00
  4.000000e-04 4.027689e-16 0.000000e+00
  4.000000e-04 3.878379e-16 0.000000e+00
  4.000000e-04 3.793245e-16 0.000000e+00
  4.000000e-04 3.848547e-16 0.000000e+00
  4.000000e-04 4.132092e-16 0.000000e+00
  4.000000e-04 4.443400e-16 0.000000e+00
  4.000000e-04 5.290554e-16 0.000000e+00
  4.000000e-04 5.604000e-16 0.000000e+00
  4.000000e-04 1.370731e-16 0.000000e+00
  4.000000e-04 -8.912817e-17 0.000000e+00
  4.000000e-04 3.350846e-16 0.000000e+00
  4.000000e-04 5.085223e-17 0.000000e+00
  4.000000e-04 -2.429756e-16 0.000000e+00
  4.000000e-04 1.035261e-15 0.000000e+00
  4.000000e-04 -1.170515e-15 0.000000e+00
  4.000000e-04 9.904098e-16 0.000000e+00
  4.000000e-04 4.817364e-16 0.000000e+00
  4.000000e-04 2.457075e-16 0.000000e+00
  4.000000e-04 -1.723427e-16 0.000000e+00
  4.000000e-04 3.517444e-16 0.000000e+00
  4.000000e-04 2.730247e-16 0.000000e+00
  4.000000e-04 1.527113e-18 0.000000e+00
  4.000000e-04 -3.073239e-16 0.000000e+00
  4.000000e-04 -5.668954e-16 0.000000e+00
  4.000000e-04 1.245424e-15 0.000000e+00
  4.000000e-04 -7.295207e-16 0.000000e+00
  4.000000e-04 2.903594e-16 0.000000e+00
  4.000000e-04 -1.744794e-16 0.000000e+00
  4.000000e-04 2.119309e-16 0.000000e+00
  4.000000e-04 -2.913079e-16 0.000000e+00
  4.000000e-04 -1.536055e-16 0.000000e+00
  4.000000e-04 2.192290e-16 0.000000e+00
  4.000000e-04 1.652407e-16 0.000000e+00
  4.000000e-04 6.299669e-17 0.000000e+00
  4.000000e-04 3.481262e-17 0.000000e+00
  4.000000e-04 4.057475e-17 0.000000e+00
  4.000000e-04 3.394435e-17 0.000000e+00
  4.000000e-04 3.786693e-17 0.000000e+00
  4.000000e-04 5.028430e-17 0.000000e+00
  4.000000e-04 5.044081e-17 0.000000e+00
  4.000000e-04 3.110342e-17 0.000000e+00
  4.000000e-04 2.049884e-17 0.000000e+00
  4.000000e-04 2.587715e-17 0.000000e+00
  4.000000e-04 1.932982e-17 0.000000e+00
  4.000000e-04 2.865210e-17 0.000000e+00
  4.000000e-04 5.069835e-17 0.000000e+00
  4.000000e-04 5.070458e-17 0.000000e+00
  4.000000e-04 5.118501e-17 0.000000e+00
  4.000000e-04 5.753975e-17 0.000000e+00
  4.000000e-04 5.055168e-17 0.000000e+00
  4.000000e-04 4.398417e-17 0.000000e+00
  4.000000e-04 4.601285e-17 0.000000e+00
  4.000000e-04 2.693231e-17 0.000000e+00
  4.000000e-04 3.579428e-17 0.000000e+00
  4.000000e-04 3.200464e-17 0.000000e+00
  4.000000e-04 1.260028e-17 0.000000e+00
  4.000000e-04 2.020989e-17 0.000000e+00
  4.000000e-04 9.747109e-18 0.000000e+00
  4.000000e-04 1.956372e-17 0.000000e+00
  4.000000e-04 1.420616e-17 0.000000e+00
  4.000000e-04 1.482302e-17 0.000000e+00
  4.000000e-04 1.368508e-17 0.000000e+00
  4.000000e-04 1.600324e-17 0.000000e+00
  4.000000e-04 1.425683e-17 0.000000e+00
  4.000000e-04 -1.185810e-18 0.000000e+00
  4.000000e-04 1.180473e-17 0.000000e+00
  4.000000e-04 8.945716e-18 0.000000e+00
  4.000000e-04 1.146612e-17 0.000000e+00
  4.000000e-04 1.807870e-17 0.000000e+00
  4.000000e-04 1.094713e-18 0.000000e+00
  4.000000e-04 -9.976502e-18 0.000000e+00
  4.000000e-04 7.705837e-18 0.000000e+00
  4.000000e-04 7.849435e-19 0.000000e+00
  4.000000e-04 2.931360e-18 0.000000e+00
  4.000000e-04 -1.684346e-18 0.000000e+00
  4.000000e-04 2.616329e-19 0.000000e+00
  4.000000e-04 -1.278752e-17 0.000000e+00
  4.000000e-04 -9.685862e-18 0.000000e+00
  4.000000e-04 -3.866962e-18 0.000000e+00
  4.000000e-04 -4.348636e-18 0.000000e+00
  4.000000e-04 -1.779694e-17 0.000000e+00
  4.000000e-04 -1.909022e-17 0.000000e+00
  4.000000e-04 -1.528670e-17 0.000000e+00
  4.000000e-04 -1.873327e-17 0.000000e+00
  4.000000e-04 -1.687472e-17 0.000000e+00
  4.000000e-04 -3.846279e-18 0.000000e+00
  4.000000e-04 -1.141173e-17 0.000000e+00
  4.000000e-04 -1.146129e-17 0.000000e+00
  4.000000e-04 -1.492612e-17 0.000000e+00
  4.000000e-04 -1.489603e-17 0.000000e+00
  4.000000e-04 -1.068278e-17 0.000000e+00
  4.000000e-04 5.417702e-20 0.000000e+00