# vtk DataFile Version 2.0
vtk output
ASCII
DATASET UNSTRUCTURED_GRID
POINTS 402 float 
 1.00000000e-03  0.00000000e+00  0.00000000e+00
 1.00000000e-03  2.00000000e-02  0.00000000e+00
 2.00000000e-03  0.00000000e+00  0.00000000e+00
 2.00000000e-03  2.00000000e-02  0.00000000e+00
 3.00000000e-03  0.00000000e+00  0.00000000e+00
 3.00000000e-03  2.00000000e-02  0.00000000e+00
 4.00000000e-03  0.00000000e+00  0.00000000e+00
 4.00000000e-03  2.00000000e-02  0.00000000e+00
 5.00000000e-03  0.00000000e+00  0.00000000e+00
 5.00000000e-03  2.00000000e-02  0.00000000e+00
 6.00000000e-03  0.00000000e+00  0.00000000e+00
 6.00000000e-03  2.00000000e-02  0.00000000e+00
 7.00000000e-03  0.00000000e+00  0.00000000e+00
 7.00000000e-03  2.00000000e-02  0.00000000e+00
 8.00000000e-03  0.00000000e+00  0.00000000e+00
 8.00000000e-03  2.00000000e-02  0.00000000e+00
 9.00000000e-03  0.00000000e+00  0.00000000e+00
 9.00000000e-03  2.00000000e-02  0.00000000e+00
 1.00000000e-02  0.00000000e+00  0.00000000e+00
 1.00000000e-02  2.00000000e-02  0.00000000e+00
 1.10000000e-02  0.00000000e+00  0.00000000e+00
 1.10000000e-02  2.00000000e-02  0.00000000e+00
 1.20000000e-02  0.00000000e+00  0.00000000e+00
 1.20000000e-02  2.00000000e-02  0.00000000e+00
 1.30000000e-02  0.00000000e+00  0.00000000e+00
 1.30000000e-02  2.00000000e-02  0.00000000e+00
 1.40000000e-02  0.00000000e+00  0.00000000e+00
 1.40000000e-02  2.00000000e-02  0.00000000e+00
 1.50000000e-02  0.00000000e+00  0.00000000e+00
 1.50000000e-02  2.00000000e-02  0.00000000e+00
 1.60000000e-02  0.00000000e+00  0.00000000e+00
 1.60000000e-02  2.00000000e-02  0.00000000e+00
 1.70000000e-02  0.00000000e+00  0.00000000e+00
 1.70000000e-02  2.00000000e-02  0.00000000e+00
 1.80000000e-02  0.00000000e+00  0.00000000e+00
 1.80000000e-02  2.00000000e-02  0.00000000e+00
 1.90000000e-02  0.00000000e+00  0.00000000e+00
 1.90000000e-02  2.00000000e-02  0.00000000e+00
 2.00000000e-02  0.00000000e+00  0.00000000e+00
 2.00000000e-02  2.00000000e-02  0.00000000e+00
 2.10000000e-02  0.00000000e+00  0.00000000e+00
 2.10000000e-02  2.00000000e-02  0.00000000e+00
 2.20000000e-02  0.00000000e+00  0.00000000e+00
 2.20000000e-02  2.00000000e-02  0.00000000e+00
 2.30000000e-02  0.00000000e+00  0.00000000e+00
 2.30000000e-02  2.00000000e-02  0.00000000e+00
 2.40000000e-02  0.00000000e+00  0.00000000e+00
 2.40000000e-02  2.00000000e-02  0.00000000e+00
 2.50000000e-02  0.00000000e+00  0.00000000e+00
 2.50000000e-02  2.00000000e-02  0.00000000e+00
 2.60000000e-02  0.00000000e+00  0.00000000e+00
 2.60000000e-02  2.00000000e-02  0.00000000e+00
 2.70000000e-02  0.00000000e+00  0.00000000e+00
 2.70000000e-02  2.00000000e-02  0.00000000e+00
 2.80000000e-02  0.00000000e+00  0.00000000e+00
 2.80000000e-02  2.00000000e-02  0.00000000e+00
 2.90000000e-02  0.00000000e+00  0.00000000e+00
 2.90000000e-02  2.00000000e-02  0.00000000e+00
 3.00000000e-02  0.00000000e+00  0.00000000e+00
 3.00000000e-02  2.00000000e-02  0.00000000e+00
 3.10000000e-02  0.00000000e+00  0.00000000e+00
 3.10000000e-02  2.00000000e-02  0.00000000e+00
 3.20000000e-02  0.00000000e+00  0.00000000e+00
 3.20000000e-02  2.00000000e-02  0.00000000e+00
 3.30000000e-02  0.00000000e+00  0.00000000e+00
 3.30000000e-02  2.00000000e-02  0.00000000e+00
 3.40000000e-02  0.00000000e+00  0.00000000e+00
 3.40000000e-02  2.00000000e-02  0.00000000e+00
 3.50000000e-02  0.00000000e+00  0.00000000e+00
 3.50000000e-02  2.00000000e-02  0.00000000e+00
 3.60000000e-02  0.00000000e+00  0.00000000e+00
 3.60000000e-02  2.00000000e-02  0.00000000e+00
 3.70000000e-02  0.00000000e+00  0.00000000e+00
 3.70000000e-02  2.00000000e-02  0.00000000e+00
 3.80000000e-02  0.00000000e+00  0.00000000e+00
 3.80000000e-02  2.00000000e-02  0.00000000e+00
 3.90000000e-02  0.00000000e+00  0.00000000e+00
 3.90000000e-02  2.00000000e-02  0.00000000e+00
 4.00000000e-02  0.00000000e+00  0.00000000e+00
 4.00000000e-02  2.00000000e-02  0.00000000e+00
 4.10000000e-02  0.00000000e+00  0.00000000e+00
 4.10000000e-02  2.00000000e-02  0.00000000e+00
 4.20000000e-02  0.00000000e+00  0.00000000e+00
 4.20000000e-02  2.00000000e-02  0.00000000e+00
 4.30000000e-02  0.00000000e+00  0.00000000e+00
 4.30000000e-02  2.00000000e-02  0.00000000e+00
 4.40000000e-02  0.00000000e+00  0.00000000e+00
 4.40000000e-02  2.00000000e-02  0.00000000e+00
 4.50000000e-02  0.00000000e+00  0.00000000e+00
 4.50000000e-02  2.00000000e-02  0.00000000e+00
 4.60000000e-02  0.00000000e+00  0.00000000e+00
 4.60000000e-02  2.00000000e-02  0.00000000e+00
 4.70000000e-02  0.00000000e+00  0.00000000e+00
 4.70000000e-02  2.00000000e-02  0.00000000e+00
 4.80000000e-02  0.00000000e+00  0.00000000e+00
 4.80000000e-02  2.00000000e-02  0.00000000e+00
 4.90000000e-02  0.00000000e+00  0.00000000e+00
 4.90000000e-02  2.00000000e-02  0.00000000e+00
 5.00000000e-02  0.00000000e+00  0.00000000e+00
 5.00000000e-02  2.00000000e-02  0.00000000e+00
 5.10000000e-02  0.00000000e+00  0.00000000e+00
 5.10000000e-02  2.00000000e-02  0.00000000e+00
 5.20000000e-02  0.00000000e+00  0.00000000e+00
 5.20000000e-02  2.00000000e-02  0.00000000e+00
 5.30000000e-02  0.00000000e+00  0.00000000e+00
 5.30000000e-02  2.00000000e-02  0.00000000e+00
 5.40000000e-02  0.00000000e+00  0.00000000e+00
 5.40000000e-02  2.00000000e-02  0.00000000e+00
 5.50000000e-02  0.00000000e+00  0.00000000e+00
 5.50000000e-02  2.00000000e-02  0.00000000e+00
 5.60000000e-02  0.00000000e+00  0.00000000e+00
 5.60000000e-02  2.00000000e-02  0.00000000e+00
 5.70000000e-02  0.00000000e+00  0.00000000e+00
 5.70000000e-02  2.00000000e-02  0.00000000e+00
 5.80000000e-02  0.00000000e+00  0.00000000e+00
 5.80000000e-02  2.00000000e-02  0.00000000e+00
 5.90000000e-02  0.00000000e+00  0.00000000e+00
 5.90000000e-02  2.00000000e-02  0.00000000e+00
 6.00000000e-02  0.00000000e+00  0.00000000e+00
 6.00000000e-02  2.00000000e-02  0.00000000e+00
 6.10000000e-02  0.00000000e+00  0.00000000e+00
 6.10000000e-02  2.00000000e-02  0.00000000e+00
 6.20000000e-02  0.00000000e+00  0.00000000e+00
 6.20000000e-02  2.00000000e-02  0.00000000e+00
 6.30000000e-02  0.00000000e+00  0.00000000e+00
 6.30000000e-02  2.00000000e-02  0.00000000e+00
 6.40000000e-02  0.00000000e+00  0.00000000e+00
 6.40000000e-02  2.00000000e-02  0.00000000e+00
 6.50000000e-02  0.00000000e+00  0.00000000e+00
 6.50000000e-02  2.00000000e-02  0.00000000e+00
 6.60000000e-02  0.00000000e+00  0.00000000e+00
 6.60000000e-02  2.00000000e-02  0.00000000e+00
 6.70000000e-02  0.00000000e+00  0.00000000e+00
 6.70000000e-02  2.00000000e-02  0.00000000e+00
 6.80000000e-02  0.00000000e+00  0.00000000e+00
 6.80000000e-02  2.00000000e-02  0.00000000e+00
 6.90000000e-02  0.00000000e+00  0.00000000e+00
 6.90000000e-02  2.00000000e-02  0.00000000e+00
 7.00000000e-02  0.00000000e+00  0.00000000e+00
 7.00000000e-02  2.00000000e-02  0.00000000e+00
 7.10000000e-02  0.00000000e+00  0.00000000e+00
 7.10000000e-02  2.00000000e-02  0.00000000e+00
 7.20000000e-02  0.00000000e+00  0.00000000e+00
 7.20000000e-02  2.00000000e-02  0.00000000e+00
 7.30000000e-02  0.00000000e+00  0.00000000e+00
 7.30000000e-02  2.00000000e-02  0.00000000e+00
 7.40000000e-02  0.00000000e+00  0.00000000e+00
 7.40000000e-02  2.00000000e-02  0.00000000e+00
 7.50000000e-02  0.00000000e+00  0.00000000e+00
 7.50000000e-02  2.00000000e-02  0.00000000e+00
 7.60000000e-02  0.00000000e+00  0.00000000e+00
 7.60000000e-02  2.00000000e-02  0.00000000e+00
 7.70000000e-02  0.00000000e+00  0.00000000e+00
 7.70000000e-02  2.00000000e-02  0.00000000e+00
 7.80000000e-02  0.00000000e+00  0.00000000e+00
 7.80000000e-02  2.00000000e-02  0.00000000e+00
 7.90000000e-02  0.00000000e+00  0.00000000e+00
 7.90000000e-02  2.00000000e-02  0.00000000e+00
 8.00000000e-02  0.00000000e+00  0.00000000e+00
 8.00000000e-02  2.00000000e-02  0.00000000e+00
 8.10000000e-02  0.00000000e+00  0.00000000e+00
 8.10000000e-02  2.00000000e-02  0.00000000e+00
 8.20000000e-02  0.00000000e+00  0.00000000e+00
 8.20000000e-02  2.00000000e-02  0.00000000e+00
 8.30000000e-02  0.00000000e+00  0.00000000e+00
 8.30000000e-02  2.00000000e-02  0.00000000e+00
 8.40000000e-02  0.00000000e+00  0.00000000e+00
 8.40000000e-02  2.00000000e-02  0.00000000e+00
 8.50000000e-02  0.00000000e+00  0.00000000e+00
 8.50000000e-02  2.00000000e-02  0.00000000e+00
 8.60000000e-02  0.00000000e+00  0.00000000e+00
 8.60000000e-02  2.00000000e-02  0.00000000e+00
 8.70000000e-02  0.00000000e+00  0.00000000e+00
 8.70000000e-02  2.00000000e-02  0.00000000e+00
 8.80000000e-02  0.00000000e+00  0.00000000e+00
 8.80000000e-02  2.00000000e-02  0.00000000e+00
 8.90000000e-02  0.00000000e+00  0.00000000e+00
 8.90000000e-02  2.00000000e-02  0.00000000e+00
 9.00000000e-02  0.00000000e+00  0.00000000e+00
 9.00000000e-02  2.00000000e-02  0.00000000e+00
 9.10000000e-02  0.00000000e+00  0.00000000e+00
 9.10000000e-02  2.00000000e-02  0.00000000e+00
 9.20000000e-02  0.00000000e+00  0.00000000e+00
 9.20000000e-02  2.00000000e-02  0.00000000e+00
 9.30000000e-02  0.00000000e+00  0.00000000e+00
 9.30000000e-02  2.00000000e-02  0.00000000e+00
 9.40000000e-02  0.00000000e+00  0.00000000e+00
 9.40000000e-02  2.00000000e-02  0.00000000e+00
 9.50000000e-02  0.00000000e+00  0.00000000e+00
 9.50000000e-02  2.00000000e-02  0.00000000e+00
 9.60000000e-02  0.00000000e+00  0.00000000e+00
 9.60000000e-02  2.00000000e-02  0.00000000e+00
 9.70000000e-02  0.00000000e+00  0.00000000e+00
 9.70000000e-02  2.00000000e-02  0.00000000e+00
 9.80000000e-02  0.00000000e+00  0.00000000e+00
 9.80000000e-02  2.00000000e-02  0.00000000e+00
 9.90000000e-02  0.00000000e+00  0.00000000e+00
 9.90000000e-02  2.00000000e-02  0.00000000e+00
 1.00000000e-01  0.00000000e+00  0.00000000e+00
 1.00000000e-01  2.00000000e-02  0.00000000e+00
 1.01000000e-01  0.00000000e+00  0.00000000e+00
 1.01000000e-01  2.00000000e-02  0.00000000e+00
 1.02000000e-01  0.00000000e+00  0.00000000e+00
 1.02000000e-01  2.00000000e-02  0.00000000e+00
 1.03000000e-01  0.00000000e+00  0.00000000e+00
 1.03000000e-01  2.00000000e-02  0.00000000e+00
 1.04000000e-01  0.00000000e+00  0.00000000e+00
 1.04000000e-01  2.00000000e-02  0.00000000e+00
 1.05000000e-01  0.00000000e+00  0.00000000e+00
 1.05000000e-01  2.00000000e-02  0.00000000e+00
 1.06000000e-01  0.00000000e+00  0.00000000e+00
 1.06000000e-01  2.00000000e-02  0.00000000e+00
 1.07000000e-01  0.00000000e+00  0.00000000e+00
 1.07000000e-01  2.00000000e-02  0.00000000e+00
 1.08000000e-01  0.00000000e+00  0.00000000e+00
 1.08000000e-01  2.00000000e-02  0.00000000e+00
 1.09000000e-01  0.00000000e+00  0.00000000e+00
 1.09000000e-01  2.00000000e-02  0.00000000e+00
 1.10000000e-01  0.00000000e+00  0.00000000e+00
 1.10000000e-01  2.00000000e-02  0.00000000e+00
 1.11000000e-01  0.00000000e+00  0.00000000e+00
 1.11000000e-01  2.00000000e-02  0.00000000e+00
 1.12000000e-01  0.00000000e+00  0.00000000e+00
 1.12000000e-01  2.00000000e-02  0.00000000e+00
 1.13000000e-01  0.00000000e+00  0.00000000e+00
 1.13000000e-01  2.00000000e-02  0.00000000e+00
 1.14000000e-01  0.00000000e+00  0.00000000e+00
 1.14000000e-01  2.00000000e-02  0.00000000e+00
 1.15000000e-01  0.00000000e+00  0.00000000e+00
 1.15000000e-01  2.00000000e-02  0.00000000e+00
 1.16000000e-01  0.00000000e+00  0.00000000e+00
 1.16000000e-01  2.00000000e-02  0.00000000e+00
 1.17000000e-01  0.00000000e+00  0.00000000e+00
 1.17000000e-01  2.00000000e-02  0.00000000e+00
 1.18000000e-01  0.00000000e+00  0.00000000e+00
 1.18000000e-01  2.00000000e-02  0.00000000e+00
 1.19000000e-01  0.00000000e+00  0.00000000e+00
 1.19000000e-01  2.00000000e-02  0.00000000e+00
 1.20000000e-01  0.00000000e+00  0.00000000e+00
 1.20000000e-01  2.00000000e-02  0.00000000e+00
 1.21000000e-01  0.00000000e+00  0.00000000e+00
 1.21000000e-01  2.00000000e-02  0.00000000e+00
 1.22000000e-01  0.00000000e+00  0.00000000e+00
 1.22000000e-01  2.00000000e-02  0.00000000e+00
 1.23000000e-01  0.00000000e+00  0.00000000e+00
 1.23000000e-01  2.00000000e-02  0.00000000e+00
 1.24000000e-01  0.00000000e+00  0.00000000e+00
 1.24000000e-01  2.00000000e-02  0.00000000e+00
 1.25000000e-01  0.00000000e+00  0.00000000e+00
 1.25000000e-01  2.00000000e-02  0.00000000e+00
 1.26000000e-01  0.00000000e+00  0.00000000e+00
 1.26000000e-01  2.00000000e-02  0.00000000e+00
 1.27000000e-01  0.00000000e+00  0.00000000e+00
 1.27000000e-01  2.00000000e-02  0.00000000e+00
 1.28000000e-01  0.00000000e+00  0.00000000e+00
 1.28000000e-01  2.00000000e-02  0.00000000e+00
 1.29000000e-01  0.00000000e+00  0.00000000e+00
 1.29000000e-01  2.00000000e-02  0.00000000e+00
 1.30000000e-01  0.00000000e+00  0.00000000e+00
 1.30000000e-01  2.00000000e-02  0.00000000e+00
 1.31000000e-01  0.00000000e+00  0.00000000e+00
 1.31000000e-01  2.00000000e-02  0.00000000e+00
 1.32000000e-01  0.00000000e+00  0.00000000e+00
 1.32000000e-01  2.00000000e-02  0.00000000e+00
 1.33000000e-01  0.00000000e+00  0.00000000e+00
 1.33000000e-01  2.00000000e-02  0.00000000e+00
 1.34000000e-01  0.00000000e+00  0.00000000e+00
 1.34000000e-01  2.00000000e-02  0.00000000e+00
 1.35000000e-01  0.00000000e+00  0.00000000e+00
 1.35000000e-01  2.00000000e-02  0.00000000e+00
 1.36000000e-01  0.00000000e+00  0.00000000e+00
 1.36000000e-01  2.00000000e-02  0.00000000e+00
 1.37000000e-01  0.00000000e+00  0.00000000e+00
 1.37000000e-01  2.00000000e-02  0.00000000e+00
 1.38000000e-01  0.00000000e+00  0.00000000e+00
 1.38000000e-01  2.00000000e-02  0.00000000e+00
 1.39000000e-01  0.00000000e+00  0.00000000e+00
 1.39000000e-01  2.00000000e-02  0.00000000e+00
 1.40000000e-01  0.00000000e+00  0.00000000e+00
 1.40000000e-01  2.00000000e-02  0.00000000e+00
 1.41000000e-01  0.00000000e+00  0.00000000e+00
 1.41000000e-01  2.00000000e-02  0.00000000e+00
 1.42000000e-01  0.00000000e+00  0.00000000e+00
 1.42000000e-01  2.00000000e-02  0.00000000e+00
 1.43000000e-01  0.00000000e+00  0.00000000e+00
 1.43000000e-01  2.00000000e-02  0.00000000e+00
 1.44000000e-01  0.00000000e+00  0.00000000e+00
 1.44000000e-01  2.00000000e-02  0.00000000e+00
 1.45000000e-01  0.00000000e+00  0.00000000e+00
 1.45000000e-01  2.00000000e-02  0.00000000e+00
 1.46000000e-01  0.00000000e+00  0.00000000e+00
 1.46000000e-01  2.00000000e-02  0.00000000e+00
 1.47000000e-01  0.00000000e+00  0.00000000e+00
 1.47000000e-01  2.00000000e-02  0.00000000e+00
 1.48000000e-01  0.00000000e+00  0.00000000e+00
 1.48000000e-01  2.00000000e-02  0.00000000e+00
 1.49000000e-01  0.00000000e+00  0.00000000e+00
 1.49000000e-01  2.00000000e-02  0.00000000e+00
 1.50000000e-01  0.00000000e+00  0.00000000e+00
 1.50000000e-01  2.00000000e-02  0.00000000e+00
 1.51000000e-01  0.00000000e+00  0.00000000e+00
 1.51000000e-01  2.00000000e-02  0.00000000e+00
 1.52000000e-01  0.00000000e+00  0.00000000e+00
 1.52000000e-01  2.00000000e-02  0.00000000e+00
 1.53000000e-01  0.00000000e+00  0.00000000e+00
 1.53000000e-01  2.00000000e-02  0.00000000e+00
 1.54000000e-01  0.00000000e+00  0.00000000e+00
 1.54000000e-01  2.00000000e-02  0.00000000e+00
 1.55000000e-01  0.00000000e+00  0.00000000e+00
 1.55000000e-01  2.00000000e-02  0.00000000e+00
 1.56000000e-01  0.00000000e+00  0.00000000e+00
 1.56000000e-01  2.00000000e-02  0.00000000e+00
 1.57000000e-01  0.00000000e+00  0.00000000e+00
 1.57000000e-01  2.00000000e-02  0.00000000e+00
 1.58000000e-01  0.00000000e+00  0.00000000e+00
 1.58000000e-01  2.00000000e-02  0.00000000e+00
 1.59000000e-01  0.00000000e+00  0.00000000e+00
 1.59000000e-01  2.00000000e-02  0.00000000e+00
 1.60000000e-01  0.00000000e+00  0.00000000e+00
 1.60000000e-01  2.00000000e-02  0.00000000e+00
 1.61000000e-01  0.00000000e+00  0.00000000e+00
 1.61000000e-01  2.00000000e-02  0.00000000e+00
 1.62000000e-01  0.00000000e+00  0.00000000e+00
 1.62000000e-01  2.00000000e-02  0.00000000e+00
 1.63000000e-01  0.00000000e+00  0.00000000e+00
 1.63000000e-01  2.00000000e-02  0.00000000e+00
 1.64000000e-01  0.00000000e+00  0.00000000e+00
 1.64000000e-01  2.00000000e-02  0.00000000e+00
 1.65000000e-01  0.00000000e+00  0.00000000e+00
 1.65000000e-01  2.00000000e-02  0.00000000e+00
 1.66000000e-01  0.00000000e+00  0.00000000e+00
 1.66000000e-01  2.00000000e-02  0.00000000e+00
 1.67000000e-01  0.00000000e+00  0.00000000e+00
 1.67000000e-01  2.00000000e-02  0.00000000e+00
 1.68000000e-01  0.00000000e+00  0.00000000e+00
 1.68000000e-01  2.00000000e-02  0.00000000e+00
 1.69000000e-01  0.00000000e+00  0.00000000e+00
 1.69000000e-01  2.00000000e-02  0.00000000e+00
 1.70000000e-01  0.00000000e+00  0.00000000e+00
 1.70000000e-01  2.00000000e-02  0.00000000e+00
 1.71000000e-01  0.00000000e+00  0.00000000e+00
 1.71000000e-01  2.00000000e-02  0.00000000e+00
 1.72000000e-01  0.00000000e+00  0.00000000e+00
 1.72000000e-01  2.00000000e-02  0.00000000e+00
 1.73000000e-01  0.00000000e+00  0.00000000e+00
 1.73000000e-01  2.00000000e-02  0.00000000e+00
 1.74000000e-01  0.00000000e+00  0.00000000e+00
 1.74000000e-01  2.00000000e-02  0.00000000e+00
 1.75000000e-01  0.00000000e+00  0.00000000e+00
 1.75000000e-01  2.00000000e-02  0.00000000e+00
 1.76000000e-01  0.00000000e+00  0.00000000e+00
 1.76000000e-01  2.00000000e-02  0.00000000e+00
 1.77000000e-01  0.00000000e+00  0.00000000e+00
 1.77000000e-01  2.00000000e-02  0.00000000e+00
 1.78000000e-01  0.00000000e+00  0.00000000e+00
 1.78000000e-01  2.00000000e-02  0.00000000e+00
 1.79000000e-01  0.00000000e+00  0.00000000e+00
 1.79000000e-01  2.00000000e-02  0.00000000e+00
 1.80000000e-01  0.00000000e+00  0.00000000e+00
 1.80000000e-01  2.00000000e-02  0.00000000e+00
 1.81000000e-01  0.00000000e+00  0.00000000e+00
 1.81000000e-01  2.00000000e-02  0.00000000e+00
 1.82000000e-01  0.00000000e+00  0.00000000e+00
 1.82000000e-01  2.00000000e-02  0.00000000e+00
 1.83000000e-01  0.00000000e+00  0.00000000e+00
 1.83000000e-01  2.00000000e-02  0.00000000e+00
 1.84000000e-01  0.00000000e+00  0.00000000e+00
 1.84000000e-01  2.00000000e-02  0.00000000e+00
 1.85000000e-01  0.00000000e+00  0.00000000e+00
 1.85000000e-01  2.00000000e-02  0.00000000e+00
 1.86000000e-01  0.00000000e+00  0.00000000e+00
 1.86000000e-01  2.00000000e-02  0.00000000e+00
 1.87000000e-01  0.00000000e+00  0.00000000e+00
 1.87000000e-01  2.00000000e-02  0.00000000e+00
 1.88000000e-01  0.00000000e+00  0.00000000e+00
 1.88000000e-01  2.00000000e-02  0.00000000e+00
 1.89000000e-01  0.00000000e+00  0.00000000e+00
 1.89000000e-01  2.00000000e-02  0.00000000e+00
 1.90000000e-01  0.00000000e+00  0.00000000e+00
 1.90000000e-01  2.00000000e-02  0.00000000e+00
 1.91000000e-01  0.00000000e+00  0.00000000e+00
 1.91000000e-01  2.00000000e-02  0.00000000e+00
 1.92000000e-01  0.00000000e+00  0.00000000e+00
 1.92000000e-01  2.00000000e-02  0.00000000e+00
 1.93000000e-01  0.00000000e+00  0.00000000e+00
 1.93000000e-01  2.00000000e-02  0.00000000e+00
 1.94000000e-01  0.00000000e+00  0.00000000e+00
 1.94000000e-01  2.00000000e-02  0.00000000e+00
 1.95000000e-01  0.00000000e+00  0.00000000e+00
 1.95000000e-01  2.00000000e-02  0.00000000e+00
 1.96000000e-01  0.00000000e+00  0.00000000e+00
 1.96000000e-01  2.00000000e-02  0.00000000e+00
 1.97000000e-01  0.00000000e+00  0.00000000e+00
 1.97000000e-01  2.00000000e-02  0.00000000e+00
 1.98000000e-01  0.00000000e+00  0.00000000e+00
 1.98000000e-01  2.00000000e-02  0.00000000e+00
 1.99000000e-01  0.00000000e+00  0.00000000e+00
 1.99000000e-01  2.00000000e-02  0.00000000e+00
 2.00000000e-01  0.00000000e+00  0.00000000e+00
 2.00000000e-01  2.00000000e-02  0.00000000e+00
 0.00000000e+00  2.00000000e-02  0.00000000e+00
 0.00000000e+00  0.00000000e+00  0.00000000e+00
CELLS 202 1006
4 401 0 1 400
4 0 2 3 1
4 2 4 5 3
4 4 6 7 5
4 6 8 9 7
4 8 10 11 9
4 10 12 13 11
4 12 14 15 13
4 14 16 17 15
4 16 18 19 17
4 18 20 21 19
4 20 22 23 21
4 22 24 25 23
4 24 26 27 25
4 26 28 29 27
4 28 30 31 29
4 30 32 33 31
4 32 34 35 33
4 34 36 37 35
4 36 38 39 37
4 38 40 41 39
4 40 42 43 41
4 42 44 45 43
4 44 46 47 45
4 46 48 49 47
4 48 50 51 49
4 50 52 53 51
4 52 54 55 53
4 54 56 57 55
4 56 58 59 57
4 58 60 61 59
4 60 62 63 61
4 62 64 65 63
4 64 66 67 65
4 66 68 69 67
4 68 70 71 69
4 70 72 73 71
4 72 74 75 73
4 74 76 77 75
4 76 78 79 77
4 78 80 81 79
4 80 82 83 81
4 82 84 85 83
4 84 86 87 85
4 86 88 89 87
4 88 90 91 89
4 90 92 93 91
4 92 94 95 93
4 94 96 97 95
4 96 98 99 97
4 98 100 101 99
4 100 102 103 101
4 102 104 105 103
4 104 106 107 105
4 106 108 109 107
4 108 110 111 109
4 110 112 113 111
4 112 114 115 113
4 114 116 117 115
4 116 118 119 117
4 118 120 121 119
4 120 122 123 121
4 122 124 125 123
4 124 126 127 125
4 126 128 129 127
4 128 130 131 129
4 130 132 133 131
4 132 134 135 133
4 134 136 137 135
4 136 138 139 137
4 138 140 141 139
4 140 142 143 141
4 142 144 145 143
4 144 146 147 145
4 146 148 149 147
4 148 150 151 149
4 150 152 153 151
4 152 154 155 153
4 154 156 157 155
4 156 158 159 157
4 158 160 161 159
4 160 162 163 161
4 162 164 165 163
4 164 166 167 165
4 166 168 169 167
4 168 170 171 169
4 170 172 173 171
4 172 174 175 173
4 174 176 177 175
4 176 178 179 177
4 178 180 181 179
4 180 182 183 181
4 182 184 185 183
4 184 186 187 185
4 186 188 189 187
4 188 190 191 189
4 190 192 193 191
4 192 194 195 193
4 194 196 197 195
4 196 198 199 197
4 198 200 201 199
4 200 202 203 201
4 202 204 205 203
4 204 206 207 205
4 206 208 209 207
4 208 210 211 209
4 210 212 213 211
4 212 214 215 213
4 214 216 217 215
4 216 218 219 217
4 218 220 221 219
4 220 222 223 221
4 222 224 225 223
4 224 226 227 225
4 226 228 229 227
4 228 230 231 229
4 230 232 233 231
4 232 234 235 233
4 234 236 237 235
4 236 238 239 237
4 238 240 241 239
4 240 242 243 241
4 242 244 245 243
4 244 246 247 245
4 246 248 249 247
4 248 250 251 249
4 250 252 253 251
4 252 254 255 253
4 254 256 257 255
4 256 258 259 257
4 258 260 261 259
4 260 262 263 261
4 262 264 265 263
4 264 266 267 265
4 266 268 269 267
4 268 270 271 269
4 270 272 273 271
4 272 274 275 273
4 274 276 277 275
4 276 278 279 277
4 278 280 281 279
4 280 282 283 281
4 282 284 285 283
4 284 286 287 285
4 286 288 289 287
4 288 290 291 289
4 290 292 293 291
4 292 294 295 293
4 294 296 297 295
4 296 298 299 297
4 298 300 301 299
4 300 302 303 301
4 302 304 305 303
4 304 306 307 305
4 306 308 309 307
4 308 310 311 309
4 310 312 313 311
4 312 314 315 313
4 314 316 317 315
4 316 318 319 317
4 318 320 321 319
4 320 322 323 321
4 322 324 325 323
4 324 326 327 325
4 326 328 329 327
4 328 330 331 329
4 330 332 333 331
4 332 334 335 333
4 334 336 337 335
4 336 338 339 337
4 338 340 341 339
4 340 342 343 341
4 342 344 345 343
4 344 346 347 345
4 346 348 349 347
4 348 350 351 349
4 350 352 353 351
4 352 354 355 353
4 354 356 357 355
4 356 358 359 357
4 358 360 361 359
4 360 362 363 361
4 362 364 365 363
4 364 366 367 365
4 366 368 369 367
4 368 370 371 369
4 370 372 373 371
4 372 374 375 373
4 374 376 377 375
4 376 378 379 377
4 378 380 381 379
4 380 382 383 381
4 382 384 385 383
4 384 386 387 385
4 386 388 389 387
4 388 390 391 389
4 390 392 393 391
4 392 394 395 393
4 394 396 397 395
4 396 398 399 397
2 400 401
2 398 399
CELL_TYPES 202
9
9
9
9
9
9
9
9
9
9
9
9
9
9
9
9
9
9
9
9
9
9
9
9
9
9
9
9
9
9
9
9
9
9
9
9
9
9
9
9
9
9
9
9
9
9
9
9
9
9
9
9
9
9
9
9
9
9
9
9
9
9
9
9
9
9
9
9
9
9
9
9
9
9
9
9
9
9
9
9
9
9
9
9
9
9
9
9
9
9
9
9
9
9
9
9
9
9
9
9
9
9
9
9
9
9
9
9
9
9
9
9
9
9
9
9
9
9
9
9
9
9
9
9
9
9
9
9
9
9
9
9
9
9
9
9
9
9
9
9
9
9
9
9
9
9
9
9
9
9
9
9
9
9
9
9
9
9
9
9
9
9
9
9
9
9
9
9
9
9
9
9
9
9
9
9
9
9
9
9
9
9
9
9
9
9
9
9
9
9
9
9
9
9
9
9
9
9
9
9
3
3
CELL_DATA 202
SCALARS material_values float

LOOKUP_TABLE default

0
0
0
0
0
0
0
0
0
0
0
0
0
0
0
0
0
0
0
0
0
0
0
0
0
0
0
0
0
0
0
0
0
0
0
0
0
0
0
0
0
0
0
0
0
0
0
0
0
0
0
0
0
0
0
0
0
0
0
0
0
0
0
0
0
0
0
0
0
0
0
0
0
0
0
0
0
0
0
0
0
0
0
0
0
0
0
0
0
0
0
0
0
0
0
0
0
0
0
0
0
0
0
0
0
0
0
0
0
0
0
0
0
0
0
0
0
0
0
0
0
0
0
0
0
0
0
0
0
0
0
0
0
0
0
0
0
0
0
0
0
0
0
0
0
0
0
0
0
0
0
0
0
0
0
0
0
0
0
0
0
0
0
0
0
0
0
0
0
0
0
0
0
0
0
0
0
0
0
0
0
0
0
0
0
0
0
0
0
0
0
0
0
0
0
0
0
0
0
0
0
0
