# vtk DataFile Version 2.0
vtk output
ASCII
DATASET UNSTRUCTURED_GRID
POINTS 1600 float 
100.0 0.0 0.0
112.5 0.0 0.0
112.5 10.0 0.0
100.0 10.0 0.0
112.5 20.0 0.0
100.0 20.0 0.0
112.5 30.0 0.0
100.0 30.0 0.0
112.5 40.0 0.0
100.0 40.0 0.0
112.5 50.0 0.0
100.0 50.0 0.0
125.0 0.0 0.0
125.0 10.0 0.0
125.0 20.0 0.0
125.0 30.0 0.0
125.0 40.0 0.0
125.0 50.0 0.0
112.5 60.0 0.0
100.0 60.0 0.0
112.5 70.0 0.0
100.0 70.0 0.0
112.5 80.0 0.0
100.0 80.0 0.0
112.5 90.0 0.0
100.0 90.0 0.0
112.5 100.0 0.0
100.0 100.0 0.0
125.0 60.0 0.0
125.0 70.0 0.0
125.0 80.0 0.0
125.0 90.0 0.0
125.0 100.0 0.0
350.0 50.0 0.0
362.5 50.0 0.0
362.5 60.0 0.0
350.0 60.0 0.0
362.5 70.0 0.0
350.0 70.0 0.0
362.5 80.0 0.0
350.0 80.0 0.0
362.5 90.0 0.0
350.0 90.0 0.0
362.5 100.0 0.0
350.0 100.0 0.0
375.0 50.0 0.0
375.0 60.0 0.0
375.0 70.0 0.0
375.0 80.0 0.0
375.0 90.0 0.0
375.0 100.0 0.0
112.5 112.5 0.0
100.0 112.5 0.0
112.5 125.0 0.0
100.0 125.0 0.0
125.0 112.5 0.0
125.0 125.0 0.0
225.0 100.0 0.0
237.5 100.0 0.0
237.5 112.5 0.0
225.0 112.5 0.0
237.5 125.0 0.0
225.0 125.0 0.0
250.0 100.0 0.0
250.0 112.5 0.0
250.0 125.0 0.0
362.5 112.5 0.0
350.0 112.5 0.0
362.5 125.0 0.0
350.0 125.0 0.0
375.0 112.5 0.0
375.0 125.0 0.0
112.5 134.375 0.0
100.0 134.375 0.0
112.5 143.75 0.0
100.0 143.75 0.0
112.5 153.125 0.0
100.0 153.125 0.0
112.5 162.5 0.0
100.0 162.5 0.0
112.5 171.875 0.0
100.0 171.875 0.0
112.5 181.25 0.0
100.0 181.25 0.0
112.5 190.625 0.0
100.0 190.625 0.0
112.5 200.0 0.0
100.0 200.0 0.0
125.0 134.375 0.0
125.0 143.75 0.0
125.0 153.125 0.0
125.0 162.5 0.0
125.0 171.875 0.0
125.0 181.25 0.0
125.0 190.625 0.0
125.0 200.0 0.0
237.5 134.375 0.0
225.0 134.375 0.0
237.5 143.75 0.0
225.0 143.75 0.0
237.5 153.125 0.0
225.0 153.125 0.0
237.5 162.5 0.0
225.0 162.5 0.0
237.5 171.875 0.0
225.0 171.875 0.0
237.5 181.25 0.0
225.0 181.25 0.0
237.5 190.625 0.0
225.0 190.625 0.0
237.5 200.0 0.0
225.0 200.0 0.0
250.0 134.375 0.0
250.0 143.75 0.0
250.0 153.125 0.0
250.0 162.5 0.0
250.0 171.875 0.0
250.0 181.25 0.0
250.0 190.625 0.0
250.0 200.0 0.0
362.5 134.375 0.0
350.0 134.375 0.0
362.5 143.75 0.0
350.0 143.75 0.0
362.5 153.125 0.0
350.0 153.125 0.0
362.5 162.5 0.0
350.0 162.5 0.0
362.5 171.875 0.0
350.0 171.875 0.0
362.5 181.25 0.0
350.0 181.25 0.0
362.5 190.625 0.0
350.0 190.625 0.0
362.5 200.0 0.0
350.0 200.0 0.0
375.0 134.375 0.0
375.0 143.75 0.0
375.0 153.125 0.0
375.0 162.5 0.0
375.0 171.875 0.0
375.0 181.25 0.0
375.0 190.625 0.0
375.0 200.0 0.0
237.5 209.090909 0.0
225.0 209.090909 0.0
237.5 218.181818 0.0
225.0 218.181818 0.0
237.5 227.272727 0.0
225.0 227.272727 0.0
237.5 236.363636 0.0
225.0 236.363636 0.0
237.5 245.454545 0.0
225.0 245.454545 0.0
237.5 254.545455 0.0
225.0 254.545455 0.0
237.5 263.636364 0.0
225.0 263.636364 0.0
237.5 272.727273 0.0
225.0 272.727273 0.0
237.5 281.818182 0.0
225.0 281.818182 0.0
237.5 290.909091 0.0
225.0 290.909091 0.0
237.5 300.0 0.0
225.0 300.0 0.0
250.0 209.090909 0.0
250.0 218.181818 0.0
250.0 227.272727 0.0
250.0 236.363636 0.0
250.0 245.454545 0.0
250.0 254.545455 0.0
250.0 263.636364 0.0
250.0 272.727273 0.0
250.0 281.818182 0.0
250.0 290.909091 0.0
362.5 209.090909 0.0
350.0 209.090909 0.0
362.5 218.181818 0.0
350.0 218.181818 0.0
362.5 227.272727 0.0
350.0 227.272727 0.0
362.5 236.363636 0.0
350.0 236.363636 0.0
362.5 245.454545 0.0
350.0 245.454545 0.0
362.5 254.545455 0.0
350.0 254.545455 0.0
362.5 263.636364 0.0
350.0 263.636364 0.0
362.5 272.727273 0.0
350.0 272.727273 0.0
362.5 281.818182 0.0
350.0 281.818182 0.0
362.5 290.909091 0.0
350.0 290.909091 0.0
362.5 300.0 0.0
375.0 209.090909 0.0
375.0 218.181818 0.0
375.0 227.272727 0.0
375.0 236.363636 0.0
375.0 245.454545 0.0
375.0 254.545455 0.0
375.0 263.636364 0.0
375.0 272.727273 0.0
375.0 281.818182 0.0
375.0 290.909091 0.0
375.0 300.0 0.0
75.0 125.0 0.0
87.5 125.0 0.0
87.5 134.375 0.0
75.0 134.375 0.0
87.5 143.75 0.0
75.0 143.75 0.0
87.5 153.125 0.0
75.0 153.125 0.0
87.5 162.5 0.0
75.0 162.5 0.0
87.5 171.875 0.0
75.0 171.875 0.0
87.5 181.25 0.0
75.0 181.25 0.0
87.5 190.625 0.0
75.0 190.625 0.0
87.5 200.0 0.0
75.0 200.0 0.0
134.090909 125.0 0.0
134.090909 134.375 0.0
134.090909 143.75 0.0
134.090909 153.125 0.0
134.090909 162.5 0.0
134.090909 171.875 0.0
134.090909 181.25 0.0
134.090909 190.625 0.0
134.090909 200.0 0.0
143.181818 125.0 0.0
143.181818 134.375 0.0
143.181818 143.75 0.0
143.181818 153.125 0.0
143.181818 162.5 0.0
143.181818 171.875 0.0
143.181818 181.25 0.0
143.181818 190.625 0.0
143.181818 200.0 0.0
152.272727 125.0 0.0
152.272727 134.375 0.0
152.272727 143.75 0.0
152.272727 153.125 0.0
152.272727 162.5 0.0
152.272727 171.875 0.0
152.272727 181.25 0.0
152.272727 190.625 0.0
152.272727 200.0 0.0
161.363636 125.0 0.0
161.363636 134.375 0.0
161.363636 143.75 0.0
161.363636 153.125 0.0
161.363636 162.5 0.0
161.363636 171.875 0.0
161.363636 181.25 0.0
161.363636 190.625 0.0
161.363636 200.0 0.0
170.454545 125.0 0.0
170.454545 134.375 0.0
170.454545 143.75 0.0
170.454545 153.125 0.0
170.454545 162.5 0.0
170.454545 171.875 0.0
170.454545 181.25 0.0
170.454545 190.625 0.0
170.454545 200.0 0.0
179.545455 125.0 0.0
179.545455 134.375 0.0
179.545455 143.75 0.0
179.545455 153.125 0.0
179.545455 162.5 0.0
179.545455 171.875 0.0
179.545455 181.25 0.0
179.545455 190.625 0.0
179.545455 200.0 0.0
188.636364 125.0 0.0
188.636364 134.375 0.0
188.636364 143.75 0.0
188.636364 153.125 0.0
188.636364 162.5 0.0
188.636364 171.875 0.0
188.636364 181.25 0.0
188.636364 190.625 0.0
188.636364 200.0 0.0
197.727273 125.0 0.0
197.727273 134.375 0.0
197.727273 143.75 0.0
197.727273 153.125 0.0
197.727273 162.5 0.0
197.727273 171.875 0.0
197.727273 181.25 0.0
197.727273 190.625 0.0
197.727273 200.0 0.0
206.818182 125.0 0.0
206.818182 134.375 0.0
206.818182 143.75 0.0
206.818182 153.125 0.0
206.818182 162.5 0.0
206.818182 171.875 0.0
206.818182 181.25 0.0
206.818182 190.625 0.0
206.818182 200.0 0.0
215.909091 125.0 0.0
215.909091 134.375 0.0
215.909091 143.75 0.0
215.909091 153.125 0.0
215.909091 162.5 0.0
215.909091 171.875 0.0
215.909091 181.25 0.0
215.909091 190.625 0.0
215.909091 200.0 0.0
87.5 209.090909 0.0
75.0 209.090909 0.0
87.5 218.181818 0.0
75.0 218.181818 0.0
87.5 227.272727 0.0
75.0 227.272727 0.0
87.5 236.363636 0.0
75.0 236.363636 0.0
87.5 245.454545 0.0
75.0 245.454545 0.0
87.5 254.545455 0.0
75.0 254.545455 0.0
87.5 263.636364 0.0
75.0 263.636364 0.0
87.5 272.727273 0.0
75.0 272.727273 0.0
87.5 281.818182 0.0
75.0 281.818182 0.0
87.5 290.909091 0.0
75.0 290.909091 0.0
87.5 300.0 0.0
75.0 300.0 0.0
100.0 209.090909 0.0
100.0 218.181818 0.0
100.0 227.272727 0.0
100.0 236.363636 0.0
100.0 245.454545 0.0
100.0 254.545455 0.0
100.0 263.636364 0.0
100.0 272.727273 0.0
100.0 281.818182 0.0
100.0 290.909091 0.0
100.0 300.0 0.0
112.5 209.090909 0.0
112.5 218.181818 0.0
112.5 227.272727 0.0
112.5 236.363636 0.0
112.5 245.454545 0.0
112.5 254.545455 0.0
112.5 263.636364 0.0
112.5 272.727273 0.0
112.5 281.818182 0.0
112.5 290.909091 0.0
112.5 300.0 0.0
125.0 209.090909 0.0
125.0 218.181818 0.0
125.0 227.272727 0.0
125.0 236.363636 0.0
125.0 245.454545 0.0
125.0 254.545455 0.0
125.0 263.636364 0.0
125.0 272.727273 0.0
125.0 281.818182 0.0
125.0 290.909091 0.0
125.0 300.0 0.0
134.090909 209.090909 0.0
134.090909 218.181818 0.0
134.090909 227.272727 0.0
134.090909 236.363636 0.0
134.090909 245.454545 0.0
134.090909 254.545455 0.0
134.090909 263.636364 0.0
134.090909 272.727273 0.0
134.090909 281.818182 0.0
134.090909 290.909091 0.0
134.090909 300.0 0.0
143.181818 209.090909 0.0
143.181818 218.181818 0.0
143.181818 227.272727 0.0
143.181818 236.363636 0.0
143.181818 245.454545 0.0
143.181818 254.545455 0.0
143.181818 263.636364 0.0
143.181818 272.727273 0.0
143.181818 281.818182 0.0
143.181818 290.909091 0.0
143.181818 300.0 0.0
152.272727 209.090909 0.0
152.272727 218.181818 0.0
152.272727 227.272727 0.0
152.272727 236.363636 0.0
152.272727 245.454545 0.0
152.272727 254.545455 0.0
152.272727 263.636364 0.0
152.272727 272.727273 0.0
152.272727 281.818182 0.0
152.272727 290.909091 0.0
152.272727 300.0 0.0
161.363636 209.090909 0.0
161.363636 218.181818 0.0
161.363636 227.272727 0.0
161.363636 236.363636 0.0
161.363636 245.454545 0.0
161.363636 254.545455 0.0
161.363636 263.636364 0.0
161.363636 272.727273 0.0
161.363636 281.818182 0.0
161.363636 290.909091 0.0
161.363636 300.0 0.0
170.454545 209.090909 0.0
170.454545 218.181818 0.0
170.454545 227.272727 0.0
170.454545 236.363636 0.0
170.454545 245.454545 0.0
170.454545 254.545455 0.0
170.454545 263.636364 0.0
170.454545 272.727273 0.0
170.454545 281.818182 0.0
170.454545 290.909091 0.0
170.454545 300.0 0.0
179.545455 209.090909 0.0
179.545455 218.181818 0.0
179.545455 227.272727 0.0
179.545455 236.363636 0.0
179.545455 245.454545 0.0
179.545455 254.545455 0.0
179.545455 263.636364 0.0
179.545455 272.727273 0.0
179.545455 281.818182 0.0
179.545455 290.909091 0.0
179.545455 300.0 0.0
188.636364 209.090909 0.0
188.636364 218.181818 0.0
188.636364 227.272727 0.0
188.636364 236.363636 0.0
188.636364 245.454545 0.0
188.636364 254.545455 0.0
188.636364 263.636364 0.0
188.636364 272.727273 0.0
188.636364 281.818182 0.0
188.636364 290.909091 0.0
188.636364 300.0 0.0
197.727273 209.090909 0.0
197.727273 218.181818 0.0
197.727273 227.272727 0.0
197.727273 236.363636 0.0
197.727273 245.454545 0.0
197.727273 254.545455 0.0
197.727273 263.636364 0.0
197.727273 272.727273 0.0
197.727273 281.818182 0.0
197.727273 290.909091 0.0
197.727273 300.0 0.0
206.818182 209.090909 0.0
206.818182 218.181818 0.0
206.818182 227.272727 0.0
206.818182 236.363636 0.0
206.818182 245.454545 0.0
206.818182 254.545455 0.0
206.818182 263.636364 0.0
206.818182 272.727273 0.0
206.818182 281.818182 0.0
206.818182 290.909091 0.0
206.818182 300.0 0.0
215.909091 209.090909 0.0
215.909091 218.181818 0.0
215.909091 227.272727 0.0
215.909091 236.363636 0.0
215.909091 245.454545 0.0
215.909091 254.545455 0.0
215.909091 263.636364 0.0
215.909091 272.727273 0.0
215.909091 281.818182 0.0
215.909091 290.909091 0.0
215.909091 300.0 0.0
9.375 0.0 0.0
9.375 10.0 0.0
[...]
POINT_DATA 1600
VECTORS vectors float
 7.310165e-18 4.867403e-19 0.000000e+00
  7.461177e-18 4.940538e-19 0.000000e+00
  5.683600e-18 1.917162e-19 0.000000e+00
  8.440597e-18 3.824380e-20 0.000000e+00
  7.417295e-18 1.510004e-19 0.000000e+00
  7.209876e-18 2.761238e-19 0.000000e+00
  5.887324e-18 5.117596e-19 0.000000e+00
  8.791618e-18 2.636349e-19 0.000000e+00
  7.645230e-18 4.657002e-19 0.000000e+00
  7.125026e-18 6.979139e-19 0.000000e+00
  6.007241e-18 1.017150e-18 0.000000e+00
  8.788570e-18 7.534457e-19 0.000000e+00
  5.078076e-18 6.321769e-19 0.000000e+00
  6.377963e-18 1.128904e-19 0.000000e+00
  5.181535e-18 7.199380e-20 0.000000e+00
  6.510475e-18 1.415759e-19 0.000000e+00
  5.566983e-18 5.962645e-19 0.000000e+00
  6.348197e-18 7.831673e-19 0.000000e+00
  7.365704e-18 9.037896e-19 0.000000e+00
  7.142196e-18 1.402335e-18 0.000000e+00
  6.309762e-18 1.521541e-18 0.000000e+00
  8.750468e-18 1.130244e-18 0.000000e+00
  6.877783e-18 1.425114e-18 0.000000e+00
  7.243562e-18 1.544269e-18 0.000000e+00
  6.830346e-18 1.782625e-18 0.000000e+00
  8.134801e-18 1.692623e-18 0.000000e+00
  6.757088e-18 1.839972e-18 0.000000e+00
  8.275172e-18 2.012775e-18 0.000000e+00
  5.693689e-18 1.244826e-18 0.000000e+00
  6.042344e-18 1.223120e-18 0.000000e+00
  6.168677e-18 1.557762e-18 0.000000e+00
  5.789182e-18 1.685194e-18 0.000000e+00
  6.242281e-18 1.836993e-18 0.000000e+00
  3.094564e-17 3.321293e-18 0.000000e+00
  2.933474e-17 3.518632e-18 0.000000e+00
  2.998617e-17 4.288026e-18 0.000000e+00
  3.108492e-17 3.810655e-18 0.000000e+00
  3.029205e-17 4.608399e-18 0.000000e+00
  3.139525e-17 4.248082e-18 0.000000e+00
  3.061383e-17 5.189436e-18 0.000000e+00
  3.184025e-17 4.607914e-18 0.000000e+00
  3.129766e-17 5.175074e-18 0.000000e+00
  3.227293e-17 4.657897e-18 0.000000e+00
  3.134066e-17 5.318507e-18 0.000000e+00
  3.235713e-17 4.729851e-18 0.000000e+00
  2.914124e-17 4.152441e-18 0.000000e+00
  2.829023e-17 4.579168e-18 0.000000e+00
  2.969631e-17 5.394963e-18 0.000000e+00
  2.944422e-17 5.490240e-18 0.000000e+00
  3.000321e-17 5.822481e-18 0.000000e+00
  3.119773e-17 6.408880e-18 0.000000e+00
  6.925914e-18 1.852365e-18 0.000000e+00
  7.846032e-18 1.977326e-18 0.000000e+00
  7.277453e-18 1.791431e-18 0.000000e+00
  8.199219e-18 1.838627e-18 0.000000e+00
  6.128098e-18 1.801701e-18 0.000000e+00
  6.393132e-18 1.476557e-18 0.000000e+00
  1.487543e-17 2.023187e-18 0.000000e+00
  1.736165e-17 2.075824e-18 0.000000e+00
  1.758029e-17 1.435567e-18 0.000000e+00
  1.495513e-17 1.440642e-18 0.000000e+00
  1.762474e-17 9.466006e-19 0.000000e+00
  1.507327e-17 7.123301e-19 0.000000e+00
  1.981259e-17 2.289466e-18 0.000000e+00
  2.036251e-17 1.693754e-18 0.000000e+00
  2.035703e-17 1.167211e-18 0.000000e+00
  3.250179e-17 5.693033e-18 0.000000e+00
  3.311610e-17 4.887781e-18 0.000000e+00
  3.298169e-17 5.533951e-18 0.000000e+00
  3.368876e-17 4.886608e-18 0.000000e+00
  3.170197e-17 6.308210e-18 0.000000e+00
  3.225930e-17 6.140099e-18 0.000000e+00
  7.089420e-18 1.583998e-18 0.000000e+00
  8.269347e-18 1.953831e-18 0.000000e+00
  7.662031e-18 1.875124e-18 0.000000e+00
  8.416338e-18 2.183631e-18 0.000000e+00
  7.598580e-18 1.988742e-18 0.000000e+00
  8.606224e-18 2.164190e-18 0.000000e+00
  7.778222e-18 2.287538e-18 0.000000e+00
  8.757389e-18 2.494060e-18 0.000000e+00
  8.007448e-18 2.366725e-18 0.000000e+00
  8.755133e-18 2.592695e-18 0.000000e+00
  7.963734e-18 2.141076e-18 0.000000e+00
  8.921079e-18 2.507794e-18 0.000000e+00
  8.276818e-18 2.365462e-18 0.000000e+00
  9.304945e-18 2.353308e-18 0.000000e+00
  8.326378e-18 2.246914e-18 0.000000e+00
  8.928375e-18 2.501079e-18 0.000000e+00
  6.599780e-18 1.225304e-18 0.000000e+00
  6.881792e-18 1.673980e-18 0.000000e+00
  6.889369e-18 2.020368e-18 0.000000e+00
  6.927428e-18 2.013472e-18 0.000000e+00
  7.386770e-18 2.190746e-18 0.000000e+00
  7.256871e-18 2.082691e-18 0.000000e+00
  7.500573e-18 2.124847e-18 0.000000e+00
  7.731141e-18 2.095959e-18 0.000000e+00
  1.797500e-17 5.395448e-19 0.000000e+00
  1.521241e-17 5.357046e-19 0.000000e+00
  1.786860e-17 8.259158e-19 0.000000e+00
  1.517777e-17 6.472031e-19 0.000000e+00
  1.805687e-17 1.121452e-18 0.000000e+00
  1.544132e-17 7.955407e-19 0.000000e+00
  1.801115e-17 8.167833e-19 0.000000e+00
  1.530585e-17 1.086369e-18 0.000000e+00
  1.783548e-17 1.048905e-18 0.000000e+00
  1.518477e-17 1.072323e-18 0.000000e+00
  1.798145e-17 9.513383e-19 0.000000e+00
  1.529714e-17 1.051844e-18 0.000000e+00
  1.772633e-17 8.060055e-19 0.000000e+00
  1.492116e-17 1.265305e-18 0.000000e+00
  1.749383e-17 1.005911e-18 0.000000e+00
  1.480094e-17 1.188917e-18 0.000000e+00
  2.072659e-17 7.420240e-19 0.000000e+00
  2.074742e-17 8.268377e-19 0.000000e+00
  2.074230e-17 9.238119e-19 0.000000e+00
  2.070106e-17 8.288862e-19 0.000000e+00
  2.068219e-17 1.000535e-18 0.000000e+00
  2.065113e-17 8.896681e-19 0.000000e+00
  2.054045e-17 7.102958e-19 0.000000e+00
  2.031259e-17 5.328121e-19 0.000000e+00
  3.371497e-17 4.969460e-18 0.000000e+00
  3.404898e-17 4.469928e-18 0.000000e+00
  3.402886e-17 4.471245e-18 0.000000e+00
  3.445892e-17 3.879921e-18 0.000000e+00
  3.472236e-17 3.961995e-18 0.000000e+00
  3.500380e-17 3.249242e-18 0.000000e+00
  3.532636e-17 3.216137e-18 0.000000e+00
  3.540670e-17 2.649528e-18 0.000000e+00
  3.567675e-17 2.329054e-18 0.000000e+00
  3.590629e-17 1.509514e-18 0.000000e+00
  3.658901e-17 1.122295e-18 0.000000e+00
  3.637719e-17 4.218383e-19 0.000000e+00
  3.709936e-17 3.282271e-20 0.000000e+00
  3.673566e-17 6.710855e-19 0.000000e+00
  3.760117e-17 1.487006e-18 0.000000e+00
  3.738089e-17 2.265261e-18 0.000000e+00
  3.308572e-17 5.904041e-18 0.000000e+00
  3.376515e-17 5.193493e-18 0.000000e+00
  3.446207e-17 4.889166e-18 0.000000e+00
  3.511073e-17 4.064962e-18 0.000000e+00
  3.566122e-17 3.096500e-18 0.000000e+00
  3.646055e-17 2.092152e-18 0.000000e+00
  3.704684e-17 7.959381e-19 0.000000e+00
  3.783215e-17 4.178154e-19 0.000000e+00
  1.697333e-17 9.310191e-19 0.000000e+00
  1.444092e-17 1.311668e-18 0.000000e+00
  1.675390e-17 1.034228e-18 0.000000e+00
  1.442675e-17 1.472469e-18 0.000000e+00
  1.617693e-17 8.765039e-19 0.000000e+00
  1.420027e-17 1.386130e-18 0.000000e+00
  1.559186e-17 6.583543e-19 0.000000e+00
  1.384643e-17 1.517676e-18 0.000000e+00
  1.501402e-17 1.172318e-18 0.000000e+00
  1.324944e-17 1.520407e-18 0.000000e+00
  1.449025e-17 1.055671e-18 0.000000e+00
  1.310680e-17 1.850061e-18 0.000000e+00
  1.352770e-17 1.145347e-18 0.000000e+00
  1.275363e-17 1.581112e-18 0.000000e+00
  1.375726e-17 1.783470e-18 0.000000e+00
  1.285206e-17 1.201031e-18 0.000000e+00
  1.387893e-17 3.035469e-18 0.000000e+00
  1.354336e-17 1.190171e-18 0.000000e+00
  1.591551e-17 1.519385e-18 0.000000e+00
  1.426424e-17 1.028380e-18 0.000000e+00
  2.356037e-17 1.030492e-18 0.000000e+00
  1.137028e-17 6.806006e-19 0.000000e+00
  1.969422e-17 3.917334e-19 0.000000e+00
  1.932607e-17 8.842875e-20 0.000000e+00
  1.839761e-17 2.442598e-19 0.000000e+00
  1.787494e-17 5.457396e-20 0.000000e+00
  1.674495e-17 1.041088e-19 0.000000e+00
  1.546236e-17 2.893711e-19 0.000000e+00
  1.456244e-17 2.614533e-19 0.000000e+00
  1.335020e-17 1.348392e-18 0.000000e+00
  1.282180e-17 2.206567e-18 0.000000e+00
  1.333216e-17 1.029458e-17 0.000000e+00
  3.805468e-17 3.172735e-18 0.000000e+00
  3.752104e-17 3.942705e-18 0.000000e+00
  3.940186e-17 4.936180e-18 0.000000e+00
  3.810014e-17 6.010026e-18 0.000000e+00
  4.016716e-17 6.957550e-18 0.000000e+00
  3.897860e-17 8.301596e-18 0.000000e+00
  4.148668e-17 9.516901e-18 0.000000e+00
  3.967854e-17 1.100205e-17 0.000000e+00
  4.323825e-17 1.203785e-17 0.000000e+00
  4.065768e-17 1.439513e-17 0.000000e+00
  4.521497e-17 1.521548e-17 0.000000e+00
  4.230087e-17 1.825516e-17 0.000000e+00
  4.905592e-17 1.863020e-17 0.000000e+00
  4.422743e-17 2.330437e-17 0.000000e+00
  5.358923e-17 2.244065e-17 0.000000e+00
  4.827321e-17 3.243789e-17 0.000000e+00
  6.386172e-17 3.058924e-17 0.000000e+00
  5.398974e-17 3.731028e-17 0.000000e+00
  8.131688e-17 1.588325e-17 0.000000e+00
  6.834831e-17 8.664168e-17 0.000000e+00
  1.395371e-16 7.329975e-18 0.000000e+00
  3.882980e-17 1.984466e-18 0.000000e+00
  3.977080e-17 3.397210e-18 0.000000e+00
  4.105966e-17 5.289197e-18 0.000000e+00
  4.310871e-17 7.193428e-18 0.000000e+00
  4.413284e-17 9.231915e-18 0.000000e+00
  4.789848e-17 1.099046e-17 0.000000e+00
  5.003602e-17 1.309156e-17 0.000000e+00
  5.677803e-17 1.303660e-17 0.000000e+00
  6.233607e-17 1.240519e-17 0.000000e+00
  7.261688e-17 6.606376e-18 0.000000e+00
  5.151156e-17 5.717341e-18 0.000000e+00
  8.799717e-18 2.125117e-18 0.000000e+00
  8.376917e-18 2.025422e-18 0.000000e+00
  8.618890e-18 2.273766e-18 0.000000e+00
  8.407570e-18 2.178402e-18 0.000000e+00
  8.740736e-18 2.306477e-18 0.000000e+00
  8.698934e-18 2.599847e-18 0.000000e+00
  8.886926e-18 2.454003e-18 0.000000e+00
  8.777506e-18 2.672280e-18 0.000000e+00
  9.040202e-18 2.481980e-18 0.000000e+00
  9.006809e-18 2.693022e-18 0.000000e+00
  9.142156e-18 2.596059e-18 0.000000e+00
  9.215627e-18 2.764293e-18 0.000000e+00
  9.186443e-18 2.804987e-18 0.000000e+00
  9.112892e-18 2.820136e-18 0.000000e+00
  9.078285e-18 2.522560e-18 0.000000e+00
  9.341921e-18 2.835139e-18 0.000000e+00
  9.712173e-18 2.656070e-18 0.000000e+00
  9.507932e-18 2.788458e-18 0.000000e+00
  5.096713e-18 1.279965e-18 0.000000e+00
  5.176386e-18 1.226199e-18 0.000000e+00
  5.033043e-18 1.438725e-18 0.000000e+00
  5.370731e-18 1.901968e-18 0.000000e+00
  5.626392e-18 1.804463e-18 0.000000e+00
  5.815280e-18 1.966990e-18 0.000000e+00
  6.040560e-18 1.944824e-18 0.000000e+00
  5.893742e-18 1.913289e-18 0.000000e+00
  5.994235e-18 2.101919e-18 0.000000e+00
  3.777465e-18 1.002296e-18 0.000000e+00
  3.676075e-18 1.234655e-18 0.000000e+00
  3.923548e-18 1.371397e-18 0.000000e+00
  4.167248e-18 1.436368e-18 0.000000e+00
  4.269033e-18 1.746205e-18 0.000000e+00
  4.499268e-18 1.722803e-18 0.000000e+00
  4.478934e-18 2.036934e-18 0.000000e+00
  4.556136e-18 1.971406e-18 0.000000e+00
  4.799317e-18 1.802695e-18 0.000000e+00
  2.220470e-18 9.764121e-19 0.000000e+00
  2.139272e-18 1.086542e-18 0.000000e+00
  2.481478e-18 1.012790e-18 0.000000e+00
  2.523474e-18 1.488966e-18 0.000000e+00
  2.812474e-18 1.562575e-18 0.000000e+00
  2.915324e-18 1.632928e-18 0.000000e+00
  2.764748e-18 1.875363e-18 0.000000e+00
  3.305389e-18 1.793568e-18 0.000000e+00
  2.971531e-18 1.957002e-18 0.000000e+00
  9.229925e-20 8.499290e-19 0.000000e+00
  2.679497e-19 9.084720e-19 0.000000e+00
  3.585980e-19 1.071953e-18 0.000000e+00
  4.096158e-19 1.095331e-18 0.000000e+00
  6.087083e-19 1.388673e-18 0.000000e+00
  7.017773e-19 1.676344e-18 0.000000e+00
  8.591317e-19 1.631340e-18 0.000000e+00
  7.349862e-19 1.798962e-18 0.000000e+00
  8.860716e-19 1.849354e-18 0.000000e+00
  1.392097e-18 7.919221e-19 0.000000e+00
  1.340871e-18 7.554001e-19 0.000000e+00
  1.252146e-18 8.313619e-19 0.000000e+00
  1.151006e-18 1.213844e-18 0.000000e+00
  1.249582e-18 1.368793e-18 0.000000e+00
  9.152191e-19 1.371770e-18 0.000000e+00
  8.574468e-19 1.651269e-18 0.000000e+00
  7.382032e-19 1.693014e-18 0.000000e+00
  7.728646e-19 1.860977e-18 0.000000e+00
  3.618848e-18 6.945782e-19 0.000000e+00
  3.423393e-18 5.812483e-19 0.000000e+00
  3.174360e-18 8.135356e-19 0.000000e+00
  3.409538e-18 1.111904e-18 0.000000e+00
  3.158207e-18 1.201776e-18 0.000000e+00
  3.157763e-18 1.321642e-18 0.000000e+00
  3.092879e-18 1.499143e-18 0.000000e+00
  2.918766e-18 1.657185e-18 0.000000e+00
  2.964709e-18 1.739731e-18 0.000000e+00
  5.874409e-18 4.384806e-19 0.000000e+00
  5.860068e-18 2.384165e-19 0.000000e+00
  5.857521e-18 8.223172e-19 0.000000e+00
  5.730825e-18 1.168111e-18 0.000000e+00
  5.609824e-18 1.131699e-18 0.000000e+00
  5.512682e-18 1.284113e-18 0.000000e+00
  5.637593e-18 1.443655e-18 0.000000e+00
  5.567163e-18 1.534154e-18 0.000000e+00
  5.384107e-18 1.615453e-18 0.000000e+00
  7.767861e-18 4.623226e-19 0.000000e+00
  7.952661e-18 5.686598e-19 0.000000e+00
  8.044351e-18 7.219970e-19 0.000000e+00
  7.812837e-18 7.644139e-19 0.000000e+00
  7.733426e-18 1.078464e-18 0.000000e+00
  7.561532e-18 1.294261e-18 0.000000e+00
  7.707326e-18 1.370900e-18 0.000000e+00
  7.438260e-18 1.428527e-18 0.000000e+00
  7.597562e-18 1.700330e-18 0.000000e+00
  9.975595e-18 5.720159e-19 0.000000e+00
  1.025675e-17 4.633379e-19 0.000000e+00
  9.929141e-18 6.707378e-19 0.000000e+00
  1.014276e-17 8.818701e-19 0.000000e+00
  1.030835e-17 1.055256e-18 0.000000e+00
  1.007200e-17 1.173786e-18 0.000000e+00
  1.010293e-17 1.291662e-18 0.000000e+00
  1.004515e-17 1.402258e-18 0.000000e+00
  9.812820e-18 1.472199e-18 0.000000e+00
  1.247878e-17 6.108635e-19 0.000000e+00
  1.267053e-17 5.554926e-19 0.000000e+00
  1.269051e-17 5.583931e-19 0.000000e+00
  1.262493e-17 9.979800e-19 0.000000e+00
  1.253036e-17 1.085105e-18 0.000000e+00
  1.258582e-17 1.026352e-18 0.000000e+00
  1.252248e-17 1.296640e-18 0.000000e+00
  1.242049e-17 1.344439e-18 0.000000e+00
  1.237783e-17 1.231546e-18 0.000000e+00
  1.001224e-17 2.449493e-18 0.000000e+00
  9.222553e-18 2.900990e-18 0.000000e+00
  8.788863e-18 2.394033e-18 0.000000e+00
  1.107054e-17 2.267508e-18 0.000000e+00
  1.083785e-17 2.156285e-18 0.000000e+00
  8.744313e-18 2.279266e-18 0.000000e+00
  8.602116e-18 2.339658e-18 0.000000e+00
  1.019423e-17 2.005409e-18 0.000000e+00
  1.063271e-17 1.869056e-18 0.000000e+00
  9.424353e-18 2.293231e-18 0.000000e+00
  9.219522e-18 1.848864e-18 0.000000e+00
  9.936839e-18 1.818869e-18 0.000000e+00
  1.049941e-17 1.262219e-18 0.000000e+00
  1.012831e-17 1.309022e-18 0.000000e+00
  9.426527e-18 8.634015e-19 0.000000e+00
  9.972243e-18 5.939755e-19 0.000000e+00
  9.979587e-18 5.282792e-19 0.000000e+00
  9.892212e-18 2.833950e-19 0.000000e+00
  9.189594e-18 6.314969e-19 0.000000e+00
  9.154805e-18 1.637547e-19 0.000000e+00
  9.695478e-18 2.792860e-19 0.000000e+00
  9.285358e-18 3.936768e-19 0.000000e+00
  9.788331e-18 2.477310e-18 0.000000e+00
  9.574821e-18 2.216429e-18 0.000000e+00
  8.843104e-18 2.363500e-18 0.000000e+00
  1.035967e-17 1.905066e-18 0.000000e+00
  8.777495e-18 2.040265e-18 0.000000e+00
  1.064851e-17 1.477968e-18 0.000000e+00
  8.861068e-18 1.555928e-18 0.000000e+00
  1.045230e-17 8.604383e-19 0.000000e+00
  8.687902e-18 9.659962e-19 0.000000e+00
  9.974291e-18 4.154213e-19 0.000000e+00
  8.655653e-18 3.957050e-19 0.000000e+00
  8.507267e-18 2.161156e-18 0.000000e+00
  8.703711e-18 2.301459e-18 0.000000e+00
  8.637758e-18 2.078001e-18 0.000000e+00
  8.207280e-18 2.103787e-18 0.000000e+00
  9.279849e-18 1.624934e-18 0.000000e+00
  7.985854e-18 1.785508e-18 0.000000e+00
  9.527323e-18 1.361515e-18 0.000000e+00
  7.757616e-18 1.320744e-18 0.000000e+00
  9.298477e-18 9.386190e-19 0.000000e+00
  7.535539e-18 6.942728e-19 0.000000e+00
  9.387999e-18 7.047573e-20 0.000000e+00
  8.022633e-18 2.083467e-18 0.000000e+00
  7.506913e-18 2.346342e-18 0.000000e+00
  7.863425e-18 2.054406e-18 0.000000e+00
  7.860347e-18 1.823809e-18 0.000000e+00
  7.657668e-18 1.911982e-18 0.000000e+00
  8.164817e-18 1.503673e-18 0.000000e+00
  7.573091e-18 1.630608e-18 0.000000e+00
  8.413562e-18 1.207168e-18 0.000000e+00
  7.211857e-18 1.213004e-18 0.000000e+00
  8.463819e-18 2.570069e-19 0.000000e+00
  7.128870e-18 9.986696e-20 0.000000e+00
  6.436443e-18 2.001495e-18 0.000000e+00
  6.205684e-18 2.161339e-18 0.000000e+00
  6.409717e-18 2.134922e-18 0.000000e+00
  6.242273e-18 1.920740e-18 0.000000e+00
  6.418101e-18 1.750846e-18 0.000000e+00
  6.374182e-18 1.597757e-18 0.000000e+00
  6.316522e-18 1.516836e-18 0.000000e+00
  6.255155e-18 1.477034e-18 0.000000e+00
  6.401065e-18 1.030966e-18 0.000000e+00
  6.044807e-18 6.247015e-19 0.000000e+00
  6.313858e-18 1.277418e-19 0.000000e+00
  4.829339e-18 2.173450e-18 0.000000e+00
  4.763620e-18 2.020809e-18 0.000000e+00
  4.876906e-18 1.955744e-18 0.000000e+00
  4.851271e-18 1.930181e-18 0.000000e+00
  5.106760e-18 1.762239e-18 0.000000e+00
  4.740962e-18 1.790010e-18 0.000000e+00
  4.937068e-18 1.524834e-18 0.000000e+00
  4.999211e-18 1.230194e-18 0.000000e+00
  4.805570e-18 1.362398e-18 0.000000e+00
  4.763255e-18 4.405332e-19 0.000000e+00
  4.794800e-18 2.655223e-19 0.000000e+00
  3.490398e-18 2.059277e-18 0.000000e+00
  3.278058e-18 2.035376e-18 0.000000e+00
  3.074561e-18 1.852077e-18 0.000000e+00
  3.584426e-18 1.783220e-18 0.000000e+00
  3.242404e-18 1.943502e-18 0.000000e+00
  3.395868e-18 1.774234e-18 0.000000e+00
  3.409314e-18 1.385042e-18 0.000000e+00
  3.355320e-18 1.335000e-18 0.000000e+00
  3.380875e-18 1.374312e-18 0.000000e+00
  3.185028e-18 5.366366e-19 0.000000e+00
  3.261345e-18 2.216237e-19 0.000000e+00
  1.186319e-18 1.950054e-18 0.000000e+00
  1.081579e-18 1.971850e-18 0.000000e+00
  1.375983e-18 1.760183e-18 0.000000e+00
  9.637130e-19 1.884235e-18 0.000000e+00
  1.148578e-18 1.910743e-18 0.000000e+00
  1.195295e-18 1.720679e-18 0.000000e+00
  1.196650e-18 1.547258e-18 0.000000e+00
  1.114781e-18 1.288703e-18 0.000000e+00
  1.187536e-18 1.399573e-18 0.000000e+00
  1.104618e-18 6.134945e-19 0.000000e+00
  9.885088e-19 2.369988e-19 0.000000e+00
  3.603768e-19 1.798072e-18 0.000000e+00
  5.642483e-19 1.735885e-18 0.000000e+00
  4.053846e-19 1.955423e-18 0.000000e+00
  8.751244e-19 1.895643e-18 0.000000e+00
  3.901876e-19 1.962177e-18 0.000000e+00
  7.386639e-19 1.658305e-18 0.000000e+00
  3.527087e-19 1.484285e-18 0.000000e+00
  5.028333e-19 1.346728e-18 0.000000e+00
  7.911029e-19 1.329047e-18 0.000000e+00
  3.952498e-19 7.162153e-19 0.000000e+00
  5.572310e-19 2.127525e-19 0.000000e+00
  2.481008e-18 1.708911e-18 0.000000e+00
  2.750532e-18 1.787276e-18 0.000000e+00
  2.859789e-18 2.029870e-18 0.000000e+00
  2.722570e-18 1.933352e-18 0.000000e+00
  2.726805e-18 1.903365e-18 0.000000e+00
  2.889251e-18 1.734901e-18 0.000000e+00
  2.769446e-18 1.451682e-18 0.000000e+00
  3.117688e-18 1.603487e-18 0.000000e+00
  2.738287e-18 1.087603e-18 0.000000e+00
  2.685434e-18 3.880239e-19 0.000000e+00
  3.255528e-18 4.762963e-19 0.000000e+00
  5.287316e-18 1.755653e-18 0.000000e+00
  5.522790e-18 1.762081e-18 0.000000e+00
  5.212737e-18 1.832863e-18 0.000000e+00
  5.344211e-18 2.014686e-18 0.000000e+00
  5.300332e-18 1.989279e-18 0.000000e+00
  5.268146e-18 1.813431e-18 0.000000e+00
  5.574208e-18 1.730709e-18 0.000000e+00
  5.378160e-18 1.164612e-18 0.000000e+00
  4.991063e-18 8.426073e-19 0.000000e+00
  5.698912e-18 1.123640e-18 0.000000e+00
  5.537682e-18 1.069471e-18 0.000000e+00
  7.024799e-18 1.740275e-18 0.000000e+00
  7.415760e-18 1.722117e-18 0.000000e+00
  7.521770e-18 1.767780e-18 0.000000e+00
  7.326145e-18 1.948838e-18 0.000000e+00
  7.321201e-18 1.903289e-18 0.000000e+00
  7.161140e-18 1.999578e-18 0.000000e+00
  7.169168e-18 1.582611e-18 0.000000e+00
  6.807463e-18 9.281808e-19 0.000000e+00
  7.582888e-18 1.350803e-18 0.000000e+00
  7.022159e-18 9.071769e-19 0.000000e+00
  7.164571e-18 5.379434e-19 0.000000e+00
  9.398075e-18 1.593068e-18 0.000000e+00
  9.466435e-18 1.849606e-18 0.000000e+00
  9.511509e-18 1.807012e-18 0.000000e+00
  9.447858e-18 1.781049e-18 0.000000e+00
  9.318625e-18 2.032658e-18 0.000000e+00
  9.556136e-18 1.724318e-18 0.000000e+00
  8.950843e-18 1.352853e-18 0.000000e+00
  9.610062e-18 1.597216e-18 0.000000e+00
  9.365764e-18 9.400739e-19 0.000000e+00
  9.310686e-18 8.346681e-19 0.000000e+00
  9.163238e-18 1.085457e-18 0.000000e+00
  1.194704e-17 1.476574e-18 0.000000e+00
  1.222464e-17 1.748382e-18 0.000000e+00
  1.175508e-17 1.553819e-18 0.000000e+00
  1.180550e-17 1.815481e-18 0.000000e+00
  1.147113e-17 2.039015e-18 0.000000e+00
  1.123029e-17 1.684599e-18 0.000000e+00
  1.170896e-17 1.662457e-18 0.000000e+00
  1.130728e-17 1.289187e-18 0.000000e+00
  1.139889e-17 1.021466e-18 0.000000e+00
  1.138356e-17 6.203437e-19 0.000000e+00
  1.230374e-17 5.880566e-19 0.000000e+00
  1.106214e-17 7.556800e-20 0.000000e+00
  1.094183e-17 2.248280e-21 0.000000e+00
  1.047648e-17 4.597993e-20 0.000000e+00
  1.065776e-17 7.529789e-20 0.000000e+00
  1.070644e-17 4.994024e-20 0.000000e+00