# vtk DataFile Version 2.0
obtained via hydraulicmodule
ASCII
DATASET UNSTRUCTURED_GRID
POINTS 2146 double
 1.00000000e+03  0.00000000e+00  0.00000000e+00
 1.08333333e+03  0.00000000e+00  0.00000000e+00
 1.08333333e+03  8.33333333e+01  0.00000000e+00
 1.00000000e+03  8.33333333e+01  0.00000000e+00
 1.08333333e+03  1.66666667e+02  0.00000000e+00
 1.00000000e+03  1.66666667e+02  0.00000000e+00
 1.08333333e+03  2.50000000e+02  0.00000000e+00
 1.00000000e+03  2.50000000e+02  0.00000000e+00
 1.08333333e+03  3.33333333e+02  0.00000000e+00
 1.00000000e+03  3.33333333e+02  0.00000000e+00
 1.08333333e+03  4.16666667e+02  0.00000000e+00
 1.00000000e+03  4.16666667e+02  0.00000000e+00
 1.08333333e+03  5.00000000e+02  0.00000000e+00
 1.00000000e+03  5.00000000e+02  0.00000000e+00
 1.16666667e+03  0.00000000e+00  0.00000000e+00
 1.16666667e+03  8.33333333e+01  0.00000000e+00
 1.16666667e+03  1.66666667e+02  0.00000000e+00
 1.16666667e+03  2.50000000e+02  0.00000000e+00
 1.16666667e+03  3.33333333e+02  0.00000000e+00
 1.16666667e+03  4.16666667e+02  0.00000000e+00
 1.16666667e+03  5.00000000e+02  0.00000000e+00
 1.25000000e+03  0.00000000e+00  0.00000000e+00
 1.25000000e+03  8.33333333e+01  0.00000000e+00
 1.25000000e+03  1.66666667e+02  0.00000000e+00
 1.25000000e+03  2.50000000e+02  0.00000000e+00
 1.25000000e+03  3.33333333e+02  0.00000000e+00
 1.25000000e+03  4.16666667e+02  0.00000000e+00
 1.25000000e+03  5.00000000e+02  0.00000000e+00
 1.08333333e+03  5.83333333e+02  0.00000000e+00
 1.00000000e+03  5.83333333e+02  0.00000000e+00
 1.08333333e+03  6.66666667e+02  0.00000000e+00
 1.00000000e+03  6.66666667e+02  0.00000000e+00
 1.08333333e+03  7.50000000e+02  0.00000000e+00
 1.00000000e+03  7.50000000e+02  0.00000000e+00
 1.08333333e+03  8.33333333e+02  0.00000000e+00
 1.00000000e+03  8.33333333e+02  0.00000000e+00
 1.08333333e+03  9.16666667e+02  0.00000000e+00
 1.00000000e+03  9.16666667e+02  0.00000000e+00
 1.08333333e+03  1.00000000e+03  0.00000000e+00
 1.00000000e+03  1.00000000e+03  0.00000000e+00
 1.16666667e+03  5.83333333e+02  0.00000000e+00
 1.16666667e+03  6.66666667e+02  0.00000000e+00
 1.16666667e+03  7.50000000e+02  0.00000000e+00
 1.16666667e+03  8.33333333e+02  0.00000000e+00
 1.16666667e+03  9.16666667e+02  0.00000000e+00
 1.16666667e+03  1.00000000e+03  0.00000000e+00
 1.25000000e+03  5.83333333e+02  0.00000000e+00
 1.25000000e+03  6.66666667e+02  0.00000000e+00
 1.25000000e+03  7.50000000e+02  0.00000000e+00
 1.25000000e+03  8.33333333e+02  0.00000000e+00
 1.25000000e+03  9.16666667e+02  0.00000000e+00
 1.25000000e+03  1.00000000e+03  0.00000000e+00
 3.50000000e+03  5.00000000e+02  0.00000000e+00
 3.58333333e+03  5.00000000e+02  0.00000000e+00
 3.58333333e+03  5.83333333e+02  0.00000000e+00
 3.50000000e+03  5.83333333e+02  0.00000000e+00
 3.58333333e+03  6.66666667e+02  0.00000000e+00
 3.50000000e+03  6.66666667e+02  0.00000000e+00
 3.58333333e+03  7.50000000e+02  0.00000000e+00
 3.50000000e+03  7.50000000e+02  0.00000000e+00
 3.58333333e+03  8.33333333e+02  0.00000000e+00
 3.50000000e+03  8.33333333e+02  0.00000000e+00
 3.58333333e+03  9.16666667e+02  0.00000000e+00
 3.50000000e+03  9.16666667e+02  0.00000000e+00
 3.58333333e+03  1.00000000e+03  0.00000000e+00
 3.50000000e+03  1.00000000e+03  0.00000000e+00
 3.66666667e+03  5.00000000e+02  0.00000000e+00
 3.66666667e+03  5.83333333e+02  0.00000000e+00
 3.66666667e+03  6.66666667e+02  0.00000000e+00
 3.66666667e+03  7.50000000e+02  0.00000000e+00
 3.66666667e+03  8.33333333e+02  0.00000000e+00
 3.66666667e+03  9.16666667e+02  0.00000000e+00
 3.66666667e+03  1.00000000e+03  0.00000000e+00
 3.75000000e+03  5.00000000e+02  0.00000000e+00
 3.75000000e+03  5.83333333e+02  0.00000000e+00
 3.75000000e+03  6.66666667e+02  0.00000000e+00
 3.75000000e+03  7.50000000e+02  0.00000000e+00
 3.75000000e+03  8.33333333e+02  0.00000000e+00
 3.75000000e+03  9.16666667e+02  0.00000000e+00
 3.75000000e+03  1.00000000e+03  0.00000000e+00
 1.08333333e+03  1.08333333e+03  0.00000000e+00
 1.00000000e+03  1.08333333e+03  0.00000000e+00
 1.08333333e+03  1.16666667e+03  0.00000000e+00
 1.00000000e+03  1.16666667e+03  0.00000000e+00
 1.08333333e+03  1.25000000e+03  0.00000000e+00
 1.00000000e+03  1.25000000e+03  0.00000000e+00
 1.16666667e+03  1.08333333e+03  0.00000000e+00
 1.16666667e+03  1.16666667e+03  0.00000000e+00
 1.16666667e+03  1.25000000e+03  0.00000000e+00
 1.25000000e+03  1.08333333e+03  0.00000000e+00
 1.25000000e+03  1.16666667e+03  0.00000000e+00
 1.25000000e+03  1.25000000e+03  0.00000000e+00
 2.25000000e+03  1.00000000e+03  0.00000000e+00
 2.33333333e+03  1.00000000e+03  0.00000000e+00
 2.33333333e+03  1.08333333e+03  0.00000000e+00
 2.25000000e+03  1.08333333e+03  0.00000000e+00
 2.33333333e+03  1.16666667e+03  0.00000000e+00
 2.25000000e+03  1.16666667e+03  0.00000000e+00
 2.33333333e+03  1.25000000e+03  0.00000000e+00
 2.25000000e+03  1.25000000e+03  0.00000000e+00
 2.41666667e+03  1.00000000e+03  0.00000000e+00
 2.41666667e+03  1.08333333e+03  0.00000000e+00
 2.41666667e+03  1.16666667e+03  0.00000000e+00
 2.41666667e+03  1.25000000e+03  0.00000000e+00
 2.50000000e+03  1.00000000e+03  0.00000000e+00
 2.50000000e+03  1.08333333e+03  0.00000000e+00
 2.50000000e+03  1.16666667e+03  0.00000000e+00
 2.50000000e+03  1.25000000e+03  0.00000000e+00
 3.58333333e+03  1.08333333e+03  0.00000000e+00
 3.50000000e+03  1.08333333e+03  0.00000000e+00
 3.58333333e+03  1.16666667e+03  0.00000000e+00
 3.50000000e+03  1.16666667e+03  0.00000000e+00
 3.58333333e+03  1.25000000e+03  0.00000000e+00
 3.50000000e+03  1.25000000e+03  0.00000000e+00
 3.66666667e+03  1.08333333e+03  0.00000000e+00
 3.66666667e+03  1.16666667e+03  0.00000000e+00
 3.66666667e+03  1.25000000e+03  0.00000000e+00
 3.75000000e+03  1.08333333e+03  0.00000000e+00
 3.75000000e+03  1.16666667e+03  0.00000000e+00
 3.75000000e+03  1.25000000e+03  0.00000000e+00
 1.08333333e+03  1.33333333e+03  0.00000000e+00
 1.00000000e+03  1.33333333e+03  0.00000000e+00
 1.08333333e+03  1.41666667e+03  0.00000000e+00
 1.00000000e+03  1.41666667e+03  0.00000000e+00
 1.08333333e+03  1.50000000e+03  0.00000000e+00
 1.00000000e+03  1.50000000e+03  0.00000000e+00
 1.08333333e+03  1.58333333e+03  0.00000000e+00
 1.00000000e+03  1.58333333e+03  0.00000000e+00
 1.08333333e+03  1.66666667e+03  0.00000000e+00
 1.00000000e+03  1.66666667e+03  0.00000000e+00
 1.08333333e+03  1.75000000e+03  0.00000000e+00
 1.00000000e+03  1.75000000e+03  0.00000000e+00
 1.08333333e+03  1.83333333e+03  0.00000000e+00
 1.00000000e+03  1.83333333e+03  0.00000000e+00
 1.08333333e+03  1.91666667e+03  0.00000000e+00
 1.00000000e+03  1.91666667e+03  0.00000000e+00
 1.08333333e+03  2.00000000e+03  0.00000000e+00
 1.00000000e+03  2.00000000e+03  0.00000000e+00
 1.16666667e+03  1.33333333e+03  0.00000000e+00
 1.16666667e+03  1.41666667e+03  0.00000000e+00
 1.16666667e+03  1.50000000e+03  0.00000000e+00
 1.16666667e+03  1.58333333e+03  0.00000000e+00
 1.16666667e+03  1.66666667e+03  0.00000000e+00
 1.16666667e+03  1.75000000e+03  0.00000000e+00
 1.16666667e+03  1.83333333e+03  0.00000000e+00
 1.16666667e+03  1.91666667e+03  0.00000000e+00
 1.16666667e+03  2.00000000e+03  0.00000000e+00
 1.25000000e+03  1.33333333e+03  0.00000000e+00
 1.25000000e+03  1.41666667e+03  0.00000000e+00
 1.25000000e+03  1.50000000e+03  0.00000000e+00
 1.25000000e+03  1.58333333e+03  0.00000000e+00
 1.25000000e+03  1.66666667e+03  0.00000000e+00
 1.25000000e+03  1.75000000e+03  0.00000000e+00
 1.25000000e+03  1.83333333e+03  0.00000000e+00
 1.25000000e+03  1.91666667e+03  0.00000000e+00
 1.25000000e+03  2.00000000e+03  0.00000000e+00
 2.33333333e+03  1.33333333e+03  0.00000000e+00
 2.25000000e+03  1.33333333e+03  0.00000000e+00
 2.33333333e+03  1.41666667e+03  0.00000000e+00
 2.25000000e+03  1.41666667e+03  0.00000000e+00
 2.33333333e+03  1.50000000e+03  0.00000000e+00
 2.25000000e+03  1.50000000e+03  0.00000000e+00
 2.33333333e+03  1.58333333e+03  0.00000000e+00
 2.25000000e+03  1.58333333e+03  0.00000000e+00
 2.33333333e+03  1.66666667e+03  0.00000000e+00
 2.25000000e+03  1.66666667e+03  0.00000000e+00
 2.33333333e+03  1.75000000e+03  0.00000000e+00
 2.25000000e+03  1.75000000e+03  0.00000000e+00
 2.33333333e+03  1.83333333e+03  0.00000000e+00
 2.25000000e+03  1.83333333e+03  0.00000000e+00
 2.33333333e+03  1.91666667e+03  0.00000000e+00
 2.25000000e+03  1.91666667e+03  0.00000000e+00
 2.33333333e+03  2.00000000e+03  0.00000000e+00
 2.25000000e+03  2.00000000e+03  0.00000000e+00
 2.41666667e+03  1.33333333e+03  0.00000000e+00
 2.41666667e+03  1.41666667e+03  0.00000000e+00
 2.41666667e+03  1.50000000e+03  0.00000000e+00
 2.41666667e+03  1.58333333e+03  0.00000000e+00
 2.41666667e+03  1.66666667e+03  0.00000000e+00
 2.41666667e+03  1.75000000e+03  0.00000000e+00
 2.41666667e+03  1.83333333e+03  0.00000000e+00
 2.41666667e+03  1.91666667e+03  0.00000000e+00
 2.41666667e+03  2.00000000e+03  0.00000000e+00
 2.50000000e+03  1.33333333e+03  0.00000000e+00
 2.50000000e+03  1.41666667e+03  0.00000000e+00
 2.50000000e+03  1.50000000e+03  0.00000000e+00
 2.50000000e+03  1.58333333e+03  0.00000000e+00
 2.50000000e+03  1.66666667e+03  0.00000000e+00
 2.50000000e+03  1.75000000e+03  0.00000000e+00
 2.50000000e+03  1.83333333e+03  0.00000000e+00
 2.50000000e+03  1.91666667e+03  0.00000000e+00
 2.50000000e+03  2.00000000e+03  0.00000000e+00
 3.58333333e+03  1.33333333e+03  0.00000000e+00
 3.50000000e+03  1.33333333e+03  0.00000000e+00
 3.58333333e+03  1.41666667e+03  0.00000000e+00
 3.50000000e+03  1.41666667e+03  0.00000000e+00
 3.58333333e+03  1.50000000e+03  0.00000000e+00
 3.50000000e+03  1.50000000e+03  0.00000000e+00
 3.58333333e+03  1.58333333e+03  0.00000000e+00
 3.50000000e+03  1.58333333e+03  0.00000000e+00
 3.58333333e+03  1.66666667e+03  0.00000000e+00
 3.50000000e+03  1.66666667e+03  0.00000000e+00
 3.58333333e+03  1.75000000e+03  0.00000000e+00
 3.50000000e+03  1.75000000e+03  0.00000000e+00
 3.58333333e+03  1.83333333e+03  0.00000000e+00
 3.50000000e+03  1.83333333e+03  0.00000000e+00
[...]
POINT_DATA 2146
VECTORS vectors float
 1.340253e-09 1.036247e-09 0.000000e+00
  3.454338e-10 -2.943775e-10 0.000000e+00
  3.440000e-10 -9.851215e-10 0.000000e+00
  1.344437e-09 3.079358e-09 0.000000e+00
  3.397377e-10 -2.272020e-09 0.000000e+00
  1.356635e-09 6.659519e-09 0.000000e+00
  3.327576e-10 -3.451209e-09 0.000000e+00
  1.375759e-09 9.930150e-09 0.000000e+00
  3.232695e-10 -4.639741e-09 0.000000e+00
  1.399959e-09 1.340320e-08 0.000000e+00
  3.115891e-10 -5.863516e-09 0.000000e+00
  1.426592e-09 1.693269e-08 0.000000e+00
  2.981605e-10 -7.112276e-09 0.000000e+00
  1.452266e-09 2.056317e-08 0.000000e+00
  2.578457e-10 4.696708e-10 0.000000e+00
  2.579592e-10 1.271105e-09 0.000000e+00
  2.582954e-10 2.741833e-09 0.000000e+00
  2.588289e-10 4.063164e-09 0.000000e+00
  2.595229e-10 5.384389e-09 0.000000e+00
  2.603116e-10 6.723068e-09 0.000000e+00
  2.610997e-10 8.059957e-09 0.000000e+00
  1.616830e-09 -1.159068e-09 0.000000e+00
  1.616123e-09 -3.759357e-09 0.000000e+00
  1.613791e-09 -8.272255e-09 0.000000e+00
  1.609193e-09 -1.230080e-08 0.000000e+00
  1.601283e-09 -1.647590e-08 0.000000e+00
  1.588642e-09 -2.058235e-08 0.000000e+00
  1.569602e-09 -2.465637e-08 0.000000e+00
  2.835535e-10 -8.382906e-09 0.000000e+00
  1.473029e-09 2.428782e-08 0.000000e+00
  2.684341e-10 -9.668300e-09 0.000000e+00
  1.484745e-09 2.808641e-08 0.000000e+00
  2.534987e-10 -1.095753e-08 0.000000e+00
  1.483687e-09 3.192568e-08 0.000000e+00
  2.393744e-10 -1.223673e-08 0.000000e+00
  1.467284e-09 3.576192e-08 0.000000e+00
  2.265051e-10 -1.349070e-08 0.000000e+00
  1.434889e-09 3.954611e-08 0.000000e+00
  2.150539e-10 -1.470531e-08 0.000000e+00
  1.388393e-09 4.323130e-08 0.000000e+00
  2.617496e-10 9.389011e-09 0.000000e+00
  2.620724e-10 1.070177e-08 0.000000e+00
  2.618209e-10 1.198778e-08 0.000000e+00
  2.606919e-10 1.323559e-08 0.000000e+00
  2.583390e-10 1.443427e-08 0.000000e+00
  2.543978e-10 1.557537e-08 0.000000e+00
  1.542439e-09 -2.867747e-08 0.000000e+00
  1.505690e-09 -3.261959e-08 0.000000e+00
  1.458558e-09 -3.645249e-08 0.000000e+00
  1.401344e-09 -4.014472e-08 0.000000e+00
  1.335835e-09 -4.366787e-08 0.000000e+00
  1.265550e-09 -4.700195e-08 0.000000e+00
  3.105179e-07 -2.610905e-07 0.000000e+00
  2.534669e-07 3.896371e-08 0.000000e+00
  -8.203120e-08 7.524651e-08 0.000000e+00
  -2.563339e-08 -1.857726e-07 0.000000e+00
  1.801134e-08 3.003079e-08 0.000000e+00
  1.553587e-08 -9.470962e-08 0.000000e+00
  5.180987e-10 2.675672e-08 0.000000e+00
  6.562668e-09 -8.447556e-08 0.000000e+00
  1.603127e-10 2.443043e-08 0.000000e+00
  3.884676e-09 -6.652848e-08 0.000000e+00
  1.719709e-10 1.875209e-08 0.000000e+00
  2.933724e-09 -5.746617e-08 0.000000e+00
  1.989442e-10 1.650090e-08 0.000000e+00
  2.305894e-09 -4.958084e-08 0.000000e+00
  2.523450e-07 -4.151907e-08 0.000000e+00
  -8.171966e-08 -7.080802e-08 0.000000e+00
  1.795630e-08 -3.404365e-08 0.000000e+00
  4.857623e-10 -2.555558e-08 0.000000e+00
  1.256677e-10 -1.958398e-08 0.000000e+00
  1.314748e-10 -1.815052e-08 0.000000e+00
  1.511748e-10 -1.508209e-08 0.000000e+00
  3.083876e-07 2.617891e-07 0.000000e+00
  -2.531647e-08 1.764233e-07 0.000000e+00
  1.561054e-08 9.305694e-08 0.000000e+00
  6.649914e-09 8.051940e-08 0.000000e+00
  3.995713e-09 6.446268e-08 0.000000e+00
  3.063613e-09 5.267117e-08 0.000000e+00
  2.458826e-09 4.463857e-08 0.000000e+00
  2.048545e-10 -1.587021e-08 0.000000e+00
  1.332549e-09 4.678165e-08 0.000000e+00
  1.954298e-10 -1.698183e-08 0.000000e+00
  1.274996e-09 5.018189e-08 0.000000e+00
  1.860773e-10 -1.804611e-08 0.000000e+00
  1.226186e-09 5.344674e-08 0.000000e+00
  2.485178e-10 1.665517e-08 0.000000e+00
  2.403940e-10 1.767698e-08 0.000000e+00
  2.297916e-10 1.865349e-08 0.000000e+00
  1.195820e-09 -5.014140e-08 0.000000e+00
  1.133778e-09 -5.310104e-08 0.000000e+00
  1.088462e-09 -5.592219e-08 0.000000e+00
  1.643710e-07 -1.649746e-07 0.000000e+00
  1.236934e-07 1.826973e-08 0.000000e+00
  -3.999146e-08 4.378964e-08 0.000000e+00
  -1.420681e-08 -1.248339e-07 0.000000e+00
  8.078482e-09 2.044891e-08 0.000000e+00
  6.885604e-09 -7.962595e-08 0.000000e+00
  2.282603e-10 1.967864e-08 0.000000e+00
  2.901092e-09 -7.667443e-08 0.000000e+00
  9.309535e-08 -1.660593e-08 0.000000e+00
  -3.018900e-08 -1.976917e-08 0.000000e+00
  7.363776e-09 -9.011790e-09 0.000000e+00
  2.342162e-10 -4.198151e-09 0.000000e+00
  1.010398e-07 6.081199e-08 0.000000e+00
  -8.029708e-09 3.381150e-08 0.000000e+00
  6.056828e-09 5.028057e-09 0.000000e+00
  2.374258e-09 3.042981e-10 0.000000e+00
  2.289656e-10 1.437748e-08 0.000000e+00
  1.871241e-09 -4.365550e-08 0.000000e+00
  2.566073e-10 1.273359e-08 0.000000e+00
  1.548071e-09 -3.896919e-08 0.000000e+00
  2.809846e-10 1.141847e-08 0.000000e+00
  1.298455e-09 -3.524618e-08 0.000000e+00
  1.730078e-10 -1.302313e-08 0.000000e+00
  1.922960e-10 -1.130858e-08 0.000000e+00
  2.089142e-10 -9.888799e-09 0.000000e+00
  2.049772e-09 3.807400e-08 0.000000e+00
  1.752663e-09 3.273357e-08 0.000000e+00
  1.527277e-09 2.829383e-08 0.000000e+00
  1.760078e-10 -1.908146e-08 0.000000e+00
  1.199663e-09 5.663043e-08 0.000000e+00
  1.645624e-10 -2.012068e-08 0.000000e+00
  1.213568e-09 5.984084e-08 0.000000e+00
  1.516328e-10 -2.119364e-08 0.000000e+00
  1.294759e-09 6.326789e-08 0.000000e+00
  1.400602e-10 -2.269922e-08 0.000000e+00
  1.494249e-09 6.706250e-08 0.000000e+00
  1.369000e-10 -2.304545e-08 0.000000e+00
  1.887793e-09 7.260075e-08 0.000000e+00
  3.607441e-10 -2.599797e-08 0.000000e+00
  3.332856e-09 8.009834e-08 0.000000e+00
  1.073899e-08 -3.010344e-08 0.000000e+00
  8.332501e-09 8.499000e-08 0.000000e+00
  -4.914126e-08 -5.229502e-08 0.000000e+00
  -1.667268e-08 1.321944e-07 0.000000e+00
  1.506353e-07 -2.862367e-08 0.000000e+00
  1.892817e-07 1.810679e-07 0.000000e+00
  2.165707e-10 1.960940e-08 0.000000e+00
  2.007722e-10 2.058694e-08 0.000000e+00
  1.829236e-10 2.167693e-08 0.000000e+00
  1.663674e-10 2.267216e-08 0.000000e+00
  1.584912e-10 2.555812e-08 0.000000e+00
  3.782362e-10 2.621531e-08 0.000000e+00
  1.075492e-08 2.708832e-08 0.000000e+00
  -4.916056e-08 5.459818e-08 0.000000e+00
  1.507397e-07 2.668571e-08 0.000000e+00
  1.071440e-09 -5.867965e-08 0.000000e+00
  1.098708e-09 -6.149035e-08 0.000000e+00
  1.195162e-09 -6.452481e-08 0.000000e+00
  1.410261e-09 -6.822134e-08 0.000000e+00
  1.818691e-09 -7.211291e-08 0.000000e+00
  3.278190e-09 -8.091351e-08 0.000000e+00
  8.289992e-09 -8.418343e-08 0.000000e+00
  -1.672608e-08 -1.363903e-07 0.000000e+00
  1.894528e-07 -1.783384e-07 0.000000e+00
  4.917967e-11 1.902202e-08 0.000000e+00
  1.618748e-09 -6.868298e-08 0.000000e+00
  4.535550e-11 1.659756e-08 0.000000e+00
  1.259896e-09 -6.503226e-08 0.000000e+00
  4.196858e-11 1.567842e-08 0.000000e+00
  1.072683e-09 -6.155349e-08 0.000000e+00
  3.647658e-11 1.472489e-08 0.000000e+00
  9.916964e-10 -5.861250e-08 0.000000e+00
  2.771445e-11 1.387733e-08 0.000000e+00
  9.730334e-10 -5.583729e-08 0.000000e+00
  1.635697e-11 1.306089e-08 0.000000e+00
  9.939907e-10 -5.307248e-08 0.000000e+00
  3.362102e-12 1.223869e-08 0.000000e+00
  1.039394e-09 -5.021520e-08 0.000000e+00
  -1.019372e-11 1.138884e-08 0.000000e+00
  1.097794e-09 -4.720329e-08 0.000000e+00
  -2.323485e-11 1.049993e-08 0.000000e+00
  1.159964e-09 -4.400799e-08 0.000000e+00
  1.041766e-10 -2.344752e-09 0.000000e+00
  1.130214e-10 -1.930837e-09 0.000000e+00
  1.324894e-10 -8.615787e-10 0.000000e+00
  1.550292e-10 -1.882191e-10 0.000000e+00
  1.777044e-10 3.730719e-10 0.000000e+00
  1.996895e-10 8.475712e-10 0.000000e+00
  2.205253e-10 1.264937e-09 0.000000e+00
  2.397967e-10 1.646057e-09 0.000000e+00
  2.570765e-10 2.004853e-09 0.000000e+00
  1.406581e-09 -5.705120e-09 0.000000e+00
  1.025008e-09 -9.705261e-09 0.000000e+00
  7.763696e-10 -1.222897e-08 0.000000e+00
  6.097393e-10 -1.414853e-08 0.000000e+00
  4.928711e-10 -1.557743e-08 0.000000e+00
  4.089913e-10 -1.666397e-08 0.000000e+00
  3.478559e-10 -1.750305e-08 0.000000e+00
  3.028303e-10 -1.816053e-08 0.000000e+00
  2.694013e-10 -1.868355e-08 0.000000e+00
  3.019750e-10 1.035829e-08 0.000000e+00
  1.101351e-09 -3.228357e-08 0.000000e+00
  3.197176e-10 9.501190e-09 0.000000e+00
  9.441700e-10 -2.992848e-08 0.000000e+00
  3.344678e-10 8.807455e-09 0.000000e+00
  8.186078e-10 -2.806172e-08 0.000000e+00
  3.465553e-10 8.245682e-09 0.000000e+00
  7.186435e-10 -2.658753e-08 0.000000e+00
  3.563523e-10 7.790547e-09 0.000000e+00
  6.395616e-10 -2.542790e-08 0.000000e+00
  3.642433e-10 7.421476e-09 0.000000e+00
  5.774893e-10 -2.451913e-08 0.000000e+00
  3.705977e-10 7.121744e-09 0.000000e+00
  5.291828e-10 -2.380944e-08 0.000000e+00
  3.757513e-10 6.877790e-09 0.000000e+00
  4.919208e-10 -2.325698e-08 0.000000e+00
  3.799960e-10 6.678667e-09 0.000000e+00
  4.634385e-10 -2.282829e-08 0.000000e+00
  2.233829e-10 -8.701798e-09 0.000000e+00
  2.362783e-10 -7.701271e-09 0.000000e+00
  2.480578e-10 -6.852582e-09 0.000000e+00
  2.590354e-10 -6.128946e-09 0.000000e+00
  2.694026e-10 -5.509159e-09 0.000000e+00
  2.792597e-10 -4.976142e-09 0.000000e+00
  2.886482e-10 -4.515953e-09 0.000000e+00
  2.975756e-10 -4.117106e-09 0.000000e+00
  3.060340e-10 -3.770049e-09 0.000000e+00
  1.350601e-09 2.455056e-08 0.000000e+00
  1.208685e-09 2.136290e-08 0.000000e+00
  1.092576e-09 1.862782e-08 0.000000e+00
  9.962705e-10 1.626724e-08 0.000000e+00
  9.155847e-10 1.422024e-08 0.000000e+00
  8.475051e-10 1.243812e-08 0.000000e+00
  7.897967e-10 1.088114e-08 0.000000e+00
  7.407586e-10 9.516361e-09 0.000000e+00
  6.990673e-10 8.316100e-09 0.000000e+00
  -3.481012e-11 9.568805e-09 0.000000e+00
  1.218564e-09 -4.062751e-08 0.000000e+00
  -4.421514e-11 8.598603e-09 0.000000e+00
  1.268231e-09 -3.708076e-08 0.000000e+00
  -5.107918e-11 7.596737e-09 0.000000e+00
  1.305736e-09 -3.340069e-08 0.000000e+00
  -5.539107e-11 6.572902e-09 0.000000e+00
  1.329953e-09 -2.962730e-08 0.000000e+00
  -5.746030e-11 5.537251e-09 0.000000e+00
  1.341591e-09 -2.580123e-08 0.000000e+00
  -5.782957e-11 4.498917e-09 0.000000e+00
  1.342720e-09 -2.195844e-08 0.000000e+00
  -5.716699e-11 3.465027e-09 0.000000e+00
  1.336216e-09 -1.812677e-08 0.000000e+00
  -5.616504e-11 2.440139e-09 0.000000e+00
  1.325231e-09 -1.432417e-08 0.000000e+00
  -5.547559e-11 1.442830e-09 0.000000e+00
  1.312788e-09 -1.051253e-08 0.000000e+00
  -5.573620e-11 4.702017e-10 0.000000e+00
  1.301574e-09 -6.875580e-09 0.000000e+00
  -5.708305e-11 -6.224612e-10 0.000000e+00
  1.293823e-09 -2.817032e-09 0.000000e+00
  -5.772277e-11 -1.231383e-09 0.000000e+00
  1.291018e-09 -4.760846e-10 0.000000e+00
  2.719715e-10 2.350107e-09 0.000000e+00
  2.841933e-10 2.686806e-09 0.000000e+00
  2.936158e-10 3.017257e-09 0.000000e+00
  3.003014e-10 3.342044e-09 0.000000e+00
  3.044889e-10 3.660812e-09 0.000000e+00
  3.065513e-10 3.972885e-09 0.000000e+00
  3.069376e-10 4.277653e-09 0.000000e+00
  3.061115e-10 4.574656e-09 0.000000e+00
  3.043751e-10 4.868041e-09 0.000000e+00
  3.023695e-10 5.174676e-09 0.000000e+00
  3.046457e-10 5.475494e-09 0.000000e+00
  3.109229e-10 5.621400e-09 0.000000e+00
  2.443928e-10 -1.910620e-08 0.000000e+00
  2.255128e-10 -1.945323e-08 0.000000e+00
  2.110755e-10 -1.974264e-08 0.000000e+00
  1.998212e-10 -1.998749e-08 0.000000e+00
  1.907944e-10 -2.019721e-08 0.000000e+00
  1.832535e-10 -2.037858e-08 0.000000e+00
  1.765946e-10 -2.053646e-08 0.000000e+00
  1.702850e-10 -2.067410e-08 0.000000e+00
  1.632815e-10 -2.079092e-08 0.000000e+00
  1.584818e-10 -2.089388e-08 0.000000e+00
  1.453976e-10 -2.092804e-08 0.000000e+00
  3.835768e-10 6.515574e-09 0.000000e+00
  4.418712e-10 -2.249676e-08 0.000000e+00
  3.866946e-10 6.381462e-09 0.000000e+00
  4.256990e-10 -2.224147e-08 0.000000e+00
  3.895107e-10 6.270705e-09 0.000000e+00
  4.136916e-10 -2.204608e-08 0.000000e+00
  3.921542e-10 6.178829e-09 0.000000e+00
  4.048546e-10 -2.189794e-08 0.000000e+00
  3.947291e-10 6.102294e-09 0.000000e+00
  3.983767e-10 -2.178746e-08 0.000000e+00
  3.973212e-10 6.038350e-09 0.000000e+00
  3.935767e-10 -2.170745e-08 0.000000e+00
  4.000046e-10 5.984886e-09 0.000000e+00
  3.898316e-10 -2.165308e-08 0.000000e+00
  4.028566e-10 5.940169e-09 0.000000e+00
  3.865233e-10 -2.162134e-08 0.000000e+00
  4.056437e-10 5.903221e-09 0.000000e+00
  3.815801e-10 -2.161308e-08 0.000000e+00
  4.089785e-10 5.873377e-09 0.000000e+00
  3.829524e-10 -2.161649e-08 0.000000e+00
  4.263342e-10 5.868199e-09 0.000000e+00
  3.675185e-10 -2.173462e-08 0.000000e+00
  4.569675e-10 5.889584e-09 0.000000e+00
  3.140108e-10 -3.466788e-09 0.000000e+00
  3.214951e-10 -3.200578e-09 0.000000e+00
  3.284797e-10 -2.965693e-09 0.000000e+00
  3.349608e-10 -2.757232e-09 0.000000e+00
  3.409360e-10 -2.570972e-09 0.000000e+00
  3.464008e-10 -2.403245e-09 0.000000e+00
  3.513405e-10 -2.250825e-09 0.000000e+00
  3.557118e-10 -2.111003e-09 0.000000e+00
  3.593547e-10 -1.983562e-09 0.000000e+00
  3.616467e-10 -1.865634e-09 0.000000e+00
  3.613272e-10 -1.740120e-09 0.000000e+00
  3.594653e-10 -1.676587e-09 0.000000e+00
  6.636736e-10 7.256813e-09 0.000000e+00
  6.337332e-10 6.318276e-09 0.000000e+00
  6.085588e-10 5.482953e-09 0.000000e+00
  5.875864e-10 4.735505e-09 0.000000e+00
  5.703514e-10 4.062400e-09 0.000000e+00
  5.564698e-10 3.451594e-09 0.000000e+00
  5.456228e-10 2.892279e-09 0.000000e+00
  5.375387e-10 2.374670e-09 0.000000e+00
  5.319604e-10 1.884264e-09 0.000000e+00
  5.285497e-10 1.434426e-09 0.000000e+00
  5.268122e-10 9.484861e-10 0.000000e+00
  5.263391e-10 6.721946e-10 0.000000e+00
  1.849000e-08 1.065773e-07 0.000000e+00
  1.274816e-08 1.006287e-07 0.000000e+00
  1.239256e-08 1.062525e-07 0.000000e+00
  1.771871e-08 1.120920e-07 0.000000e+00
  1.250528e-08 1.116742e-07 0.000000e+00
  1.757242e-08 1.171446e-07 0.000000e+00
  1.335620e-08 1.171151e-07 0.000000e+00
  1.837075e-08 1.218899e-07 0.000000e+00
  1.535291e-08 1.228630e-07 0.000000e+00
  2.053471e-08 1.264724e-07 0.000000e+00
  1.921505e-08 1.292939e-07 0.000000e+00
  2.467916e-08 1.309319e-07 0.000000e+00
  2.626038e-08 1.370675e-07 0.000000e+00
  3.182389e-08 1.349413e-07 0.000000e+00
  4.053501e-08 1.438398e-07 0.000000e+00
  4.300995e-08 1.367389e-07 0.000000e+00
  6.569570e-08 1.398469e-07 0.000000e+00
  5.691277e-08 1.335563e-07 0.000000e+00
  8.317523e-08 1.302704e-07 0.000000e+00
  7.185292e-08 1.238114e-07 0.000000e+00
  6.330131e-09 1.181745e-07 0.000000e+00
  6.201876e-09 1.251436e-07 0.000000e+00
  6.316208e-09 1.320964e-07 0.000000e+00
  6.823202e-09 1.393947e-07 0.000000e+00
  7.969426e-09 1.475669e-07 0.000000e+00
  1.022373e-08 1.578415e-07 0.000000e+00
  1.494266e-08 1.714734e-07 0.000000e+00
  2.352626e-08 1.916865e-07 0.000000e+00
  5.140351e-08 2.282185e-07 0.000000e+00
  1.360978e-07 1.957709e-07 0.000000e+00
  5.446082e-09 -1.240652e-07 0.000000e+00
  5.382776e-09 -1.300320e-07 0.000000e+00
  5.586035e-09 -1.360679e-07 0.000000e+00
  6.193000e-09 -1.425438e-07 0.000000e+00
  7.440188e-09 -1.500559e-07 0.000000e+00
  9.789822e-09 -1.594714e-07 0.000000e+00
  1.459564e-08 -1.719500e-07 0.000000e+00
  2.325558e-08 -1.944432e-07 0.000000e+00
  5.121623e-08 -2.271616e-07 0.000000e+00
  1.360417e-07 -1.978481e-07 0.000000e+00
  1.087026e-08 -1.055296e-07 0.000000e+00
  1.066536e-08 -1.102537e-07 0.000000e+00
  1.097683e-08 -1.148724e-07 0.000000e+00
  1.204614e-08 -1.196116e-07 0.000000e+00
  1.425953e-08 -1.247845e-07 0.000000e+00
  1.832311e-08 -1.306577e-07 0.000000e+00
  2.554804e-08 -1.376424e-07 0.000000e+00
  3.998129e-08 -1.448773e-07 0.000000e+00
  6.528017e-08 -1.403000e-07 0.000000e+00
  8.285383e-08 -1.315551e-07 0.000000e+00
  1.559936e-08 -1.115800e-07 0.000000e+00
  1.509426e-08 -1.160755e-07 0.000000e+00
  1.527968e-08 -1.202515e-07 0.000000e+00
  1.642930e-08 -1.242647e-07 0.000000e+00
  1.893178e-08 -1.282485e-07 0.000000e+00
  2.338307e-08 -1.322414e-07 0.000000e+00
  3.079489e-08 -1.357356e-07 0.000000e+00
  4.220705e-08 -1.370019e-07 0.000000e+00
  5.629497e-08 -1.346908e-07 0.000000e+00
  7.138277e-08 -1.234830e-07 0.000000e+00
  1.996859e-08 -1.112613e-07 0.000000e+00
  1.895419e-08 -1.150491e-07 0.000000e+00
  1.876402e-08 -1.182730e-07 0.000000e+00
  1.965314e-08 -1.210286e-07 0.000000e+00
  2.192195e-08 -1.233327e-07 0.000000e+00
  2.594549e-08 -1.250115e-07 0.000000e+00
  3.208881e-08 -1.255070e-07 0.000000e+00
  4.030531e-08 -1.238585e-07 0.000000e+00
  4.992196e-08 -1.189425e-07 0.000000e+00
  5.926804e-08 -1.108043e-07 0.000000e+00
  2.375076e-08 -1.129901e-07 0.000000e+00
  2.199283e-08 -1.160130e-07 0.000000e+00
  2.118399e-08 -1.182387e-07 0.000000e+00
  2.152481e-08 -1.197662e-07 0.000000e+00
  2.318955e-08 -1.205930e-07 0.000000e+00
  2.631845e-08 -1.205503e-07 0.000000e+00
  3.093543e-08 -1.192769e-07 0.000000e+00
  3.682076e-08 -1.162607e-07 0.000000e+00
  4.337858e-08 -1.110373e-07 0.000000e+00
  4.971821e-08 -1.033926e-07 0.000000e+00
  2.680786e-08 -1.156518e-07 0.000000e+00
  2.406569e-08 -1.177546e-07 0.000000e+00
  2.244753e-08 -1.188617e-07 0.000000e+00
  2.206969e-08 -1.191400e-07 0.000000e+00
  2.296859e-08 -1.186352e-07 0.000000e+00
  2.511430e-08 -1.172516e-07 0.000000e+00
  2.838352e-08 -1.147723e-07 0.000000e+00
  3.250676e-08 -1.109302e-07 0.000000e+00
  3.704576e-08 -1.055167e-07 0.000000e+00
  4.144183e-08 -9.851134e-08 0.000000e+00
  2.892177e-08 -1.195555e-07 0.000000e+00
  2.497322e-08 -1.204714e-07 0.000000e+00
  2.244757e-08 -1.202732e-07 0.000000e+00
  2.132244e-08 -1.192499e-07 0.000000e+00
  2.147306e-08 -1.175149e-07 0.000000e+00
  2.273639e-08 -1.150289e-07 0.000000e+00
  2.490943e-08 -1.116609e-07 0.000000e+00
  2.772663e-08 -1.072569e-07 0.000000e+00
  3.085393e-08 -1.017124e-07 0.000000e+00
  3.391937e-08 -9.503187e-08 0.000000e+00
  2.968766e-08 -1.249829e-07 0.000000e+00
  2.438204e-08 -1.242403e-07 0.000000e+00
  2.102562e-08 -1.224300e-07 0.000000e+00
  1.929430e-08 -1.200114e-07 0.000000e+00
  1.885315e-08 -1.171069e-07 0.000000e+00
  1.942558e-08 -1.136715e-07 0.000000e+00
  2.076353e-08 -1.095934e-07 0.000000e+00
  2.261876e-08 -1.047565e-07 0.000000e+00
  2.473136e-08 -9.908759e-08 0.000000e+00
  2.684100e-08 -9.258887e-08 0.000000e+00
  2.821289e-08 -1.340985e-07 0.000000e+00
  2.178157e-08 -1.306473e-07 0.000000e+00
  1.800605e-08 -1.267278e-07 0.000000e+00
  1.599777e-08 -1.227592e-07 0.000000e+00
  1.522876e-08 -1.186831e-07 0.000000e+00
  1.534689e-08 -1.143595e-07 0.000000e+00
  1.609345e-08 -1.096334e-07 0.000000e+00
  1.725105e-08 -1.043764e-07 0.000000e+00
  1.862069e-08 -9.850962e-08 0.000000e+00
  2.001943e-08 -9.201766e-08 0.000000e+00
  2.322096e-08 -1.349892e-07 0.000000e+00
  1.693975e-08 -1.284525e-07 0.000000e+00
  1.346183e-08 -1.228659e-07 0.000000e+00
  1.164100e-08 -1.178367e-07 0.000000e+00
  1.085517e-08 -1.131164e-07 0.000000e+00
  1.075795e-08 -1.084140e-07 0.000000e+00
  1.112516e-08 -1.035197e-07 0.000000e+00
  1.178907e-08 -9.828231e-08 0.000000e+00
  1.260990e-08 -9.261045e-08 0.000000e+00
  1.346716e-08 -8.647155e-08 0.000000e+00
  1.317379e-08 -1.676049e-07 0.000000e+00
  8.986348e-09 -1.561374e-07 0.000000e+00
  6.963898e-09 -1.473406e-07 0.000000e+00
  5.923126e-09 -1.401447e-07 0.000000e+00
  5.457889e-09 -1.337752e-07 0.000000e+00
  5.357186e-09 -1.276981e-07 0.000000e+00
  5.494934e-09 -1.215778e-07 0.000000e+00
  5.782724e-09 -1.151958e-07 0.000000e+00
  6.150806e-09 -1.084211e-07 0.000000e+00
  6.541341e-09 -1.011963e-07 0.000000e+00
  1.032408e-07 1.166240e-07 0.000000e+00
  8.226682e-08 1.057863e-07 0.000000e+00
  1.087826e-07 8.837212e-08 0.000000e+00
  8.714022e-08 8.776229e-08 0.000000e+00
  1.037409e-07 6.637072e-08 0.000000e+00
  8.672989e-08 7.099600e-08 0.000000e+00
  9.628884e-08 5.088405e-08 0.000000e+00
  8.326572e-08 5.663194e-08 0.000000e+00
  8.890039e-08 3.923818e-08 0.000000e+00
  7.874162e-08 4.504475e-08 0.000000e+00
  8.230418e-08 3.039699e-08 0.000000e+00
  7.416394e-08 3.562733e-08 0.000000e+00
  7.674882e-08 2.338228e-08 0.000000e+00
  7.001174e-08 2.779672e-08 0.000000e+00
  7.227663e-08 1.758288e-08 0.000000e+00
  6.650786e-08 2.111089e-08 0.000000e+00
  6.886136e-08 1.255164e-08 0.000000e+00