# vtk DataFile Version 2.0
obtained via hydraulicmodule
ASCII
DATASET UNSTRUCTURED_GRID
POINTS 1600 double
 1.00000000e+02  0.00000000e+00  0.00000000e+00
 1.12500000e+02  0.00000000e+00  0.00000000e+00
 1.12500000e+02  1.00000000e+01  0.00000000e+00
 1.00000000e+02  1.00000000e+01  0.00000000e+00
 1.12500000e+02  2.00000000e+01  0.00000000e+00
 1.00000000e+02  2.00000000e+01  0.00000000e+00
 1.12500000e+02  3.00000000e+01  0.00000000e+00
 1.00000000e+02  3.00000000e+01  0.00000000e+00
 1.12500000e+02  4.00000000e+01  0.00000000e+00
 1.00000000e+02  4.00000000e+01  0.00000000e+00
 1.12500000e+02  5.00000000e+01  0.00000000e+00
 1.00000000e+02  5.00000000e+01  0.00000000e+00
 1.25000000e+02  0.00000000e+00  0.00000000e+00
 1.25000000e+02  1.00000000e+01  0.00000000e+00
 1.25000000e+02  2.00000000e+01  0.00000000e+00
 1.25000000e+02  3.00000000e+01  0.00000000e+00
 1.25000000e+02  4.00000000e+01  0.00000000e+00
 1.25000000e+02  5.00000000e+01  0.00000000e+00
 1.12500000e+02  6.00000000e+01  0.00000000e+00
 1.00000000e+02  6.00000000e+01  0.00000000e+00
 1.12500000e+02  7.00000000e+01  0.00000000e+00
 1.00000000e+02  7.00000000e+01  0.00000000e+00
 1.12500000e+02  8.00000000e+01  0.00000000e+00
 1.00000000e+02  8.00000000e+01  0.00000000e+00
 1.12500000e+02  9.00000000e+01  0.00000000e+00
 1.00000000e+02  9.00000000e+01  0.00000000e+00
 1.12500000e+02  1.00000000e+02  0.00000000e+00
 1.00000000e+02  1.00000000e+02  0.00000000e+00
 1.25000000e+02  6.00000000e+01  0.00000000e+00
 1.25000000e+02  7.00000000e+01  0.00000000e+00
 1.25000000e+02  8.00000000e+01  0.00000000e+00
 1.25000000e+02  9.00000000e+01  0.00000000e+00
 1.25000000e+02  1.00000000e+02  0.00000000e+00
 3.50000000e+02  5.00000000e+01  0.00000000e+00
 3.62500000e+02  5.00000000e+01  0.00000000e+00
 3.62500000e+02  6.00000000e+01  0.00000000e+00
 3.50000000e+02  6.00000000e+01  0.00000000e+00
 3.62500000e+02  7.00000000e+01  0.00000000e+00
 3.50000000e+02  7.00000000e+01  0.00000000e+00
 3.62500000e+02  8.00000000e+01  0.00000000e+00
 3.50000000e+02  8.00000000e+01  0.00000000e+00
 3.62500000e+02  9.00000000e+01  0.00000000e+00
 3.50000000e+02  9.00000000e+01  0.00000000e+00
 3.62500000e+02  1.00000000e+02  0.00000000e+00
 3.50000000e+02  1.00000000e+02  0.00000000e+00
 3.75000000e+02  5.00000000e+01  0.00000000e+00
 3.75000000e+02  6.00000000e+01  0.00000000e+00
 3.75000000e+02  7.00000000e+01  0.00000000e+00
 3.75000000e+02  8.00000000e+01  0.00000000e+00
 3.75000000e+02  9.00000000e+01  0.00000000e+00
 3.75000000e+02  1.00000000e+02  0.00000000e+00
 1.12500000e+02  1.12500000e+02  0.00000000e+00
 1.00000000e+02  1.12500000e+02  0.00000000e+00
 1.12500000e+02  1.25000000e+02  0.00000000e+00
 1.00000000e+02  1.25000000e+02  0.00000000e+00
 1.25000000e+02  1.12500000e+02  0.00000000e+00
 1.25000000e+02  1.25000000e+02  0.00000000e+00
 2.25000000e+02  1.00000000e+02  0.00000000e+00
 2.37500000e+02  1.00000000e+02  0.00000000e+00
 2.37500000e+02  1.12500000e+02  0.00000000e+00
 2.25000000e+02  1.12500000e+02  0.00000000e+00
 2.37500000e+02  1.25000000e+02  0.00000000e+00
 2.25000000e+02  1.25000000e+02  0.00000000e+00
 2.50000000e+02  1.00000000e+02  0.00000000e+00
 2.50000000e+02  1.12500000e+02  0.00000000e+00
 2.50000000e+02  1.25000000e+02  0.00000000e+00
 3.62500000e+02  1.12500000e+02  0.00000000e+00
 3.50000000e+02  1.12500000e+02  0.00000000e+00
 3.62500000e+02  1.25000000e+02  0.00000000e+00
 3.50000000e+02  1.25000000e+02  0.00000000e+00
 3.75000000e+02  1.12500000e+02  0.00000000e+00
 3.75000000e+02  1.25000000e+02  0.00000000e+00
 1.12500000e+02  1.34375000e+02  0.00000000e+00
 1.00000000e+02  1.34375000e+02  0.00000000e+00
 1.12500000e+02  1.43750000e+02  0.00000000e+00
 1.00000000e+02  1.43750000e+02  0.00000000e+00
 1.12500000e+02  1.53125000e+02  0.00000000e+00
 1.00000000e+02  1.53125000e+02  0.00000000e+00
 1.12500000e+02  1.62500000e+02  0.00000000e+00
 1.00000000e+02  1.62500000e+02  0.00000000e+00
 1.12500000e+02  1.71875000e+02  0.00000000e+00
 1.00000000e+02  1.71875000e+02  0.00000000e+00
 1.12500000e+02  1.81250000e+02  0.00000000e+00
 1.00000000e+02  1.81250000e+02  0.00000000e+00
 1.12500000e+02  1.90625000e+02  0.00000000e+00
 1.00000000e+02  1.90625000e+02  0.00000000e+00
 1.12500000e+02  2.00000000e+02  0.00000000e+00
 1.00000000e+02  2.00000000e+02  0.00000000e+00
 1.25000000e+02  1.34375000e+02  0.00000000e+00
 1.25000000e+02  1.43750000e+02  0.00000000e+00
 1.25000000e+02  1.53125000e+02  0.00000000e+00
 1.25000000e+02  1.62500000e+02  0.00000000e+00
 1.25000000e+02  1.71875000e+02  0.00000000e+00
 1.25000000e+02  1.81250000e+02  0.00000000e+00
 1.25000000e+02  1.90625000e+02  0.00000000e+00
 1.25000000e+02  2.00000000e+02  0.00000000e+00
 2.37500000e+02  1.34375000e+02  0.00000000e+00
 2.25000000e+02  1.34375000e+02  0.00000000e+00
 2.37500000e+02  1.43750000e+02  0.00000000e+00
 2.25000000e+02  1.43750000e+02  0.00000000e+00
 2.37500000e+02  1.53125000e+02  0.00000000e+00
 2.25000000e+02  1.53125000e+02  0.00000000e+00
 2.37500000e+02  1.62500000e+02  0.00000000e+00
 2.25000000e+02  1.62500000e+02  0.00000000e+00
 2.37500000e+02  1.71875000e+02  0.00000000e+00
 2.25000000e+02  1.71875000e+02  0.00000000e+00
 2.37500000e+02  1.81250000e+02  0.00000000e+00
 2.25000000e+02  1.81250000e+02  0.00000000e+00
 2.37500000e+02  1.90625000e+02  0.00000000e+00
 2.25000000e+02  1.90625000e+02  0.00000000e+00
 2.37500000e+02  2.00000000e+02  0.00000000e+00
 2.25000000e+02  2.00000000e+02  0.00000000e+00
 2.50000000e+02  1.34375000e+02  0.00000000e+00
 2.50000000e+02  1.43750000e+02  0.00000000e+00
 2.50000000e+02  1.53125000e+02  0.00000000e+00
 2.50000000e+02  1.62500000e+02  0.00000000e+00
 2.50000000e+02  1.71875000e+02  0.00000000e+00
 2.50000000e+02  1.81250000e+02  0.00000000e+00
 2.50000000e+02  1.90625000e+02  0.00000000e+00
 2.50000000e+02  2.00000000e+02  0.00000000e+00
 3.62500000e+02  1.34375000e+02  0.00000000e+00
 3.50000000e+02  1.34375000e+02  0.00000000e+00
 3.62500000e+02  1.43750000e+02  0.00000000e+00
 3.50000000e+02  1.43750000e+02  0.00000000e+00
 3.62500000e+02  1.53125000e+02  0.00000000e+00
 3.50000000e+02  1.53125000e+02  0.00000000e+00
 3.62500000e+02  1.62500000e+02  0.00000000e+00
 3.50000000e+02  1.62500000e+02  0.00000000e+00
 3.62500000e+02  1.71875000e+02  0.00000000e+00
 3.50000000e+02  1.71875000e+02  0.00000000e+00
 3.62500000e+02  1.81250000e+02  0.00000000e+00
 3.50000000e+02  1.81250000e+02  0.00000000e+00
 3.62500000e+02  1.90625000e+02  0.00000000e+00
 3.50000000e+02  1.90625000e+02  0.00000000e+00
 3.62500000e+02  2.00000000e+02  0.00000000e+00
 3.50000000e+02  2.00000000e+02  0.00000000e+00
 3.75000000e+02  1.34375000e+02  0.00000000e+00
 3.75000000e+02  1.43750000e+02  0.00000000e+00
 3.75000000e+02  1.53125000e+02  0.00000000e+00
 3.75000000e+02  1.62500000e+02  0.00000000e+00
 3.75000000e+02  1.71875000e+02  0.00000000e+00
 3.75000000e+02  1.81250000e+02  0.00000000e+00
 3.75000000e+02  1.90625000e+02  0.00000000e+00
 3.75000000e+02  2.00000000e+02  0.00000000e+00
 2.37500000e+02  2.09090909e+02  0.00000000e+00
 2.25000000e+02  2.09090909e+02  0.00000000e+00
 2.37500000e+02  2.18181818e+02  0.00000000e+00
 2.25000000e+02  2.18181818e+02  0.00000000e+00
 2.37500000e+02  2.27272727e+02  0.00000000e+00
 2.25000000e+02  2.27272727e+02  0.00000000e+00
 2.37500000e+02  2.36363636e+02  0.00000000e+00
 2.25000000e+02  2.36363636e+02  0.00000000e+00
 2.37500000e+02  2.45454545e+02  0.00000000e+00
 2.25000000e+02  2.45454545e+02  0.00000000e+00
 2.37500000e+02  2.54545455e+02  0.00000000e+00
 2.25000000e+02  2.54545455e+02  0.00000000e+00
 2.37500000e+02  2.63636364e+02  0.00000000e+00
 2.25000000e+02  2.63636364e+02  0.00000000e+00
 2.37500000e+02  2.72727273e+02  0.00000000e+00
 2.25000000e+02  2.72727273e+02  0.00000000e+00
 2.37500000e+02  2.81818182e+02  0.00000000e+00
 2.25000000e+02  2.81818182e+02  0.00000000e+00
 2.37500000e+02  2.90909091e+02  0.00000000e+00
 2.25000000e+02  2.90909091e+02  0.00000000e+00
 2.37500000e+02  3.00000000e+02  0.00000000e+00
 2.25000000e+02  3.00000000e+02  0.00000000e+00
 2.50000000e+02  2.09090909e+02  0.00000000e+00
 2.50000000e+02  2.18181818e+02  0.00000000e+00
 2.50000000e+02  2.27272727e+02  0.00000000e+00
 2.50000000e+02  2.36363636e+02  0.00000000e+00
 2.50000000e+02  2.45454545e+02  0.00000000e+00
 2.50000000e+02  2.54545455e+02  0.00000000e+00
 2.50000000e+02  2.63636364e+02  0.00000000e+00
 2.50000000e+02  2.72727273e+02  0.00000000e+00
 2.50000000e+02  2.81818182e+02  0.00000000e+00
 2.50000000e+02  2.90909091e+02  0.00000000e+00
 3.62500000e+02  2.09090909e+02  0.00000000e+00
 3.50000000e+02  2.09090909e+02  0.00000000e+00
 3.62500000e+02  2.18181818e+02  0.00000000e+00
 3.50000000e+02  2.18181818e+02  0.00000000e+00
 3.62500000e+02  2.27272727e+02  0.00000000e+00
 3.50000000e+02  2.27272727e+02  0.00000000e+00
 3.62500000e+02  2.36363636e+02  0.00000000e+00
 3.50000000e+02  2.36363636e+02  0.00000000e+00
 3.62500000e+02  2.45454545e+02  0.00000000e+00
 3.50000000e+02  2.45454545e+02  0.00000000e+00
 3.62500000e+02  2.54545455e+02  0.00000000e+00
 3.50000000e+02  2.54545455e+02  0.00000000e+00
 3.62500000e+02  2.63636364e+02  0.00000000e+00
 3.50000000e+02  2.63636364e+02  0.00000000e+00
 3.62500000e+02  2.72727273e+02  0.00000000e+00
 3.50000000e+02  2.72727273e+02  0.00000000e+00
 3.62500000e+02  2.81818182e+02  0.00000000e+00
 3.50000000e+02  2.81818182e+02  0.00000000e+00
 3.62500000e+02  2.90909091e+02  0.00000000e+00
 3.50000000e+02  2.90909091e+02  0.00000000e+00
 3.62500000e+02  3.00000000e+02  0.00000000e+00
 3.75000000e+02  2.09090909e+02  0.00000000e+00
 3.75000000e+02  2.18181818e+02  0.00000000e+00
 3.75000000e+02  2.27272727e+02  0.00000000e+00
 3.75000000e+02  2.36363636e+02  0.00000000e+00
 3.75000000e+02  2.45454545e+02  0.00000000e+00
 3.75000000e+02  2.54545455e+02  0.00000000e+00
 3.75000000e+02  2.63636364e+02  0.00000000e+00
 3.75000000e+02  2.72727273e+02  0.00000000e+00
 3.75000000e+02  2.81818182e+02  0.00000000e+00
[...]
POINT_DATA 1600
VECTORS vectors float
 -7.866286e-16 -4.384361e-17 0.000000e+00
  -4.140889e-16 -1.267459e-16 0.000000e+00
  -3.970421e-16 -3.955833e-16 0.000000e+00
  -8.101753e-16 -1.573682e-16 0.000000e+00
  -4.035900e-16 -8.709003e-16 0.000000e+00
  -7.814919e-16 -3.312761e-16 0.000000e+00
  -3.914617e-16 -1.279667e-15 0.000000e+00
  -7.887646e-16 -4.980051e-16 0.000000e+00
  -3.934794e-16 -1.700780e-15 0.000000e+00
  -7.690453e-16 -6.544780e-16 0.000000e+00
  -3.783952e-16 -2.102528e-15 0.000000e+00
  -7.393452e-16 -8.165593e-16 0.000000e+00
  -4.164222e-17 -5.324288e-17 0.000000e+00
  -5.404266e-17 -1.737652e-16 0.000000e+00
  -4.200342e-17 -3.760221e-16 0.000000e+00
  -5.473325e-17 -5.561635e-16 0.000000e+00
  -5.236825e-17 -7.361712e-16 0.000000e+00
  -4.722031e-17 -9.104852e-16 0.000000e+00
  -3.604109e-16 -2.492567e-15 0.000000e+00
  -7.234412e-16 -9.662140e-16 0.000000e+00
  -3.396700e-16 -2.861034e-15 0.000000e+00
  -6.638329e-16 -1.115635e-15 0.000000e+00
  -3.287159e-16 -3.203157e-15 0.000000e+00
  -6.260548e-16 -1.251472e-15 0.000000e+00
  -2.740914e-16 -3.492984e-15 0.000000e+00
  -5.544197e-16 -1.378761e-15 0.000000e+00
  -2.282722e-16 -3.799383e-15 0.000000e+00
  -4.360149e-16 -1.478541e-15 0.000000e+00
  -5.674456e-17 -1.078106e-15 0.000000e+00
  -4.813123e-17 -1.236007e-15 0.000000e+00
  -6.021043e-17 -1.375613e-15 0.000000e+00
  -3.036077e-17 -1.524051e-15 0.000000e+00
  -1.182704e-16 -1.555149e-15 0.000000e+00
  -2.836768e-17 -5.797547e-16 0.000000e+00
  1.102053e-15 -1.324168e-15 0.000000e+00
  1.732064e-15 -2.909152e-15 0.000000e+00
  3.574615e-16 -1.094879e-15 0.000000e+00
  9.931966e-16 -4.058045e-15 0.000000e+00
  3.073491e-16 -1.714830e-15 0.000000e+00
  1.024401e-15 -4.822857e-15 0.000000e+00
  2.851378e-16 -2.147776e-15 0.000000e+00
  9.830133e-16 -5.613477e-15 0.000000e+00
  3.033636e-16 -2.506926e-15 0.000000e+00
  9.678820e-16 -6.442597e-15 0.000000e+00
  3.003831e-16 -2.883213e-15 0.000000e+00
  2.379760e-15 -2.149900e-15 0.000000e+00
  2.338671e-15 -2.008165e-15 0.000000e+00
  1.689358e-15 -1.826327e-15 0.000000e+00
  1.703670e-15 -2.218903e-15 0.000000e+00
  1.651300e-15 -2.521496e-15 0.000000e+00
  1.629216e-15 -2.890459e-15 0.000000e+00
  -2.581234e-16 -3.966486e-15 0.000000e+00
  -3.780691e-16 -1.508710e-15 0.000000e+00
  -6.083242e-16 -3.165706e-15 0.000000e+00
  4.171248e-16 -1.555906e-15 0.000000e+00
  1.743265e-16 -1.953447e-15 0.000000e+00
  -1.710235e-15 -2.390568e-15 0.000000e+00
  -9.387963e-17 -2.093619e-16 0.000000e+00
  1.534940e-16 -3.587921e-16 0.000000e+00
  2.361241e-16 -6.965165e-16 0.000000e+00
  -2.160594e-17 -3.574324e-16 0.000000e+00
  2.498420e-16 -7.829015e-16 0.000000e+00
  3.051976e-16 -5.156640e-16 0.000000e+00
  4.077285e-16 -4.076642e-16 0.000000e+00
  3.314770e-16 -3.685057e-16 0.000000e+00
  2.086876e-16 -3.471761e-16 0.000000e+00
  9.755087e-16 -7.341411e-15 0.000000e+00
  3.174008e-16 -3.285232e-15 0.000000e+00
  9.691555e-16 -8.211507e-15 0.000000e+00
  3.150283e-16 -3.674593e-15 0.000000e+00
  1.625009e-15 -3.286892e-15 0.000000e+00
  1.617038e-15 -3.673982e-15 0.000000e+00
  -7.620650e-16 -1.899714e-15 0.000000e+00
  -2.593475e-16 -1.492055e-15 0.000000e+00
  -8.058331e-16 -1.537500e-15 0.000000e+00
  -5.688345e-16 -1.355813e-15 0.000000e+00
  -7.590999e-16 -1.291920e-15 0.000000e+00
  -6.145555e-16 -1.286491e-15 0.000000e+00
  -6.932738e-16 -1.180047e-15 0.000000e+00
  -5.947346e-16 -1.196603e-15 0.000000e+00
  -6.004094e-16 -1.100123e-15 0.000000e+00
  -5.193367e-16 -1.122283e-15 0.000000e+00
  -5.617257e-16 -1.036154e-15 0.000000e+00
  -4.926413e-16 -1.053336e-15 0.000000e+00
  -5.152874e-16 -9.761742e-16 0.000000e+00
  -4.480795e-16 -9.847834e-16 0.000000e+00
  -4.751613e-16 -9.171747e-16 0.000000e+00
  -4.012618e-16 -9.179564e-16 0.000000e+00
  -1.736689e-15 -1.788393e-15 0.000000e+00
  -1.022176e-15 -1.204532e-15 0.000000e+00
  -9.342939e-16 -1.142898e-15 0.000000e+00
  -7.881127e-16 -1.046439e-15 0.000000e+00
  -6.782614e-16 -9.948199e-16 0.000000e+00
  -6.310208e-16 -9.530547e-16 0.000000e+00
  -5.848627e-16 -9.126773e-16 0.000000e+00
  -5.468335e-16 -8.707907e-16 0.000000e+00
  2.158470e-16 -7.066489e-16 0.000000e+00
  2.361090e-16 -5.085379e-16 0.000000e+00
  1.837227e-16 -7.414381e-16 0.000000e+00
  9.353599e-17 -5.255742e-16 0.000000e+00
  1.063509e-16 -7.931168e-16 0.000000e+00
  1.028754e-17 -6.213306e-16 0.000000e+00
  7.191469e-17 -8.737828e-16 0.000000e+00
  -4.232754e-17 -7.033270e-16 0.000000e+00
  7.121020e-17 -9.684538e-16 0.000000e+00
  -5.170744e-17 -7.936967e-16 0.000000e+00
  2.701493e-17 -1.074345e-15 0.000000e+00
  -1.065377e-16 -8.862769e-16 0.000000e+00
  2.211606e-18 -1.192668e-15 0.000000e+00
  -1.424707e-16 -9.838462e-16 0.000000e+00
  -2.058536e-17 -1.322204e-15 0.000000e+00
  -1.791322e-16 -1.086431e-15 0.000000e+00
  2.253865e-16 -4.028967e-16 0.000000e+00
  2.183596e-16 -4.078395e-16 0.000000e+00
  1.723008e-16 -4.345615e-16 0.000000e+00
  1.540291e-16 -4.738202e-16 0.000000e+00
  1.673564e-16 -5.207809e-16 0.000000e+00
  1.340745e-16 -5.762605e-16 0.000000e+00
  1.212485e-16 -6.390837e-16 0.000000e+00
  1.130876e-16 -7.092127e-16 0.000000e+00
  9.690529e-16 -8.992540e-15 0.000000e+00
  3.145784e-16 -4.024020e-15 0.000000e+00
  9.894997e-16 -9.672909e-15 0.000000e+00
  3.317122e-16 -4.328253e-15 0.000000e+00
  9.619611e-16 -1.038358e-14 0.000000e+00
  3.003443e-16 -4.645985e-15 0.000000e+00
  9.624325e-16 -1.109089e-14 0.000000e+00
  2.963756e-16 -4.962365e-15 0.000000e+00
  9.920647e-16 -1.180506e-14 0.000000e+00
  3.206978e-16 -5.281809e-15 0.000000e+00
  9.754968e-16 -1.252413e-14 0.000000e+00
  2.979112e-16 -5.603520e-15 0.000000e+00
  9.786942e-16 -1.325291e-14 0.000000e+00
  2.961986e-16 -5.929592e-15 0.000000e+00
  9.883853e-16 -1.397887e-14 0.000000e+00
  2.995291e-16 -6.254870e-15 0.000000e+00
  1.618528e-15 -4.022644e-15 0.000000e+00
  1.639833e-15 -4.326511e-15 0.000000e+00
  1.614944e-15 -4.643962e-15 0.000000e+00
  1.620043e-15 -4.960100e-15 0.000000e+00
  1.654701e-15 -5.279181e-15 0.000000e+00
  1.644571e-15 -5.600408e-15 0.000000e+00
  1.654700e-15 -5.926010e-15 0.000000e+00
  1.670665e-15 -6.250158e-15 0.000000e+00
  -7.258042e-17 -1.467408e-15 0.000000e+00
  -2.472972e-16 -1.196028e-15 0.000000e+00
  -9.936572e-17 -1.631769e-15 0.000000e+00
  -3.032017e-16 -1.315234e-15 0.000000e+00
  -1.765163e-16 -1.827446e-15 0.000000e+00
  -4.071931e-16 -1.448579e-15 0.000000e+00
  -2.449224e-16 -2.066322e-15 0.000000e+00
  -5.272915e-16 -1.600628e-15 0.000000e+00
  -3.732755e-16 -2.371748e-15 0.000000e+00
  -7.240179e-16 -1.774689e-15 0.000000e+00
  -5.547881e-16 -2.762665e-15 0.000000e+00
  -9.955843e-16 -1.963889e-15 0.000000e+00
  -8.597920e-16 -3.340548e-15 0.000000e+00
  -1.432191e-15 -2.142434e-15 0.000000e+00
  -1.395856e-15 -3.979852e-15 0.000000e+00
  -2.126522e-15 -2.327684e-15 0.000000e+00
  -2.537003e-15 -6.043871e-15 0.000000e+00
  -3.320024e-15 -1.786006e-15 0.000000e+00
  -5.573142e-15 -4.577987e-15 0.000000e+00
  -5.026904e-15 -6.144058e-16 0.000000e+00
  -1.648272e-14 -1.350158e-15 0.000000e+00
  -1.015687e-15 1.991287e-16 0.000000e+00
  8.131269e-17 -7.883570e-16 0.000000e+00
  7.539612e-17 -8.798177e-16 0.000000e+00
  4.200771e-17 -9.895401e-16 0.000000e+00
  2.322303e-17 -1.127172e-15 0.000000e+00
  -2.564248e-17 -1.308196e-15 0.000000e+00
  -7.524851e-17 -1.550253e-15 0.000000e+00
  -1.676191e-16 -1.874218e-15 0.000000e+00
  -3.161056e-16 -2.693604e-15 0.000000e+00
  -6.874340e-16 -2.807685e-15 0.000000e+00
  -1.918422e-15 -9.807654e-15 0.000000e+00
  9.759886e-16 -1.470695e-14 0.000000e+00
  2.792625e-16 -6.580988e-15 0.000000e+00
  1.000999e-15 -1.543234e-14 0.000000e+00
  2.879920e-16 -6.906606e-15 0.000000e+00
  9.907889e-16 -1.616955e-14 0.000000e+00
  2.761912e-16 -7.237321e-15 0.000000e+00
  1.011611e-15 -1.691274e-14 0.000000e+00
  2.873728e-16 -7.573121e-15 0.000000e+00
  1.020068e-15 -1.766158e-14 0.000000e+00
  2.800298e-16 -7.910888e-15 0.000000e+00
  1.068811e-15 -1.843323e-14 0.000000e+00
  3.011587e-16 -8.325476e-15 0.000000e+00
  1.201763e-15 -1.929523e-14 0.000000e+00
  3.572949e-16 -8.664033e-15 0.000000e+00
  1.701455e-15 -1.958658e-14 0.000000e+00
  5.884657e-16 -1.008388e-14 0.000000e+00
  3.527311e-15 -2.257739e-14 0.000000e+00
  1.417587e-15 -9.406318e-15 0.000000e+00
  1.052679e-14 -1.526437e-14 0.000000e+00
  4.361583e-15 -2.597546e-14 0.000000e+00
  3.763547e-14 -4.695103e-15 0.000000e+00
  1.669353e-15 -6.574959e-15 0.000000e+00
  1.697122e-15 -6.899024e-15 0.000000e+00
  1.696125e-15 -7.225682e-15 0.000000e+00
  1.723784e-15 -7.554478e-15 0.000000e+00
  1.741726e-15 -7.877893e-15 0.000000e+00
  1.777450e-15 -8.172789e-15 0.000000e+00
  1.853733e-15 -8.501402e-15 0.000000e+00
  2.105660e-15 -8.307768e-15 0.000000e+00
  2.928170e-15 -6.678425e-15 0.000000e+00
  6.256471e-15 -2.371998e-15 0.000000e+00
  -5.439476e-15 -5.795727e-17 0.000000e+00
  -1.004334e-15 -1.040578e-15 0.000000e+00
  -2.556748e-16 -2.039292e-16 0.000000e+00
  -6.368628e-16 -1.187849e-15 0.000000e+00
  -9.367091e-16 -9.478272e-16 0.000000e+00
  -4.861135e-16 -1.529217e-15 0.000000e+00
  -5.183096e-16 -7.769320e-16 0.000000e+00
  -5.311118e-16 -1.493860e-15 0.000000e+00
  -5.181975e-16 -8.288917e-16 0.000000e+00
  -4.810553e-16 -1.451928e-15 0.000000e+00
  -4.211827e-16 -7.903291e-16 0.000000e+00
  -4.071279e-16 -1.373985e-15 0.000000e+00
  -3.373712e-16 -7.489962e-16 0.000000e+00
  -3.715655e-16 -1.288920e-15 0.000000e+00
  -3.006009e-16 -6.996396e-16 0.000000e+00
  -3.280059e-16 -1.199720e-15 0.000000e+00
  -2.454561e-16 -6.484374e-16 0.000000e+00
  -2.835622e-16 -1.109994e-15 0.000000e+00
  -2.094915e-16 -5.968638e-16 0.000000e+00
  -1.139748e-15 2.334386e-16 0.000000e+00
  -2.189401e-15 -8.232038e-16 0.000000e+00
  -1.084067e-15 -1.009335e-15 0.000000e+00
  -1.031313e-15 -9.561657e-16 0.000000e+00
  -8.384351e-16 -9.461009e-16 0.000000e+00
  -7.273872e-16 -9.229389e-16 0.000000e+00
  -6.761152e-16 -9.049167e-16 0.000000e+00
  -6.296493e-16 -8.821035e-16 0.000000e+00
  -5.967558e-16 -8.535715e-16 0.000000e+00
  -5.678798e-16 -2.045246e-16 0.000000e+00
  -1.604257e-15 -3.943708e-16 0.000000e+00
  -1.075953e-15 -6.944535e-16 0.000000e+00
  -9.658615e-16 -7.906487e-16 0.000000e+00
  -8.178933e-16 -8.297532e-16 0.000000e+00
  -7.059977e-16 -8.444534e-16 0.000000e+00
  -6.610227e-16 -8.533698e-16 0.000000e+00
  -6.216909e-16 -8.495568e-16 0.000000e+00
  -5.982656e-16 -8.365501e-16 0.000000e+00
  -5.212505e-16 -6.472685e-17 0.000000e+00
  -1.283940e-15 -3.106182e-16 0.000000e+00
  -9.412046e-16 -5.190616e-16 0.000000e+00
  -9.082165e-16 -6.537919e-16 0.000000e+00
  -7.923025e-16 -7.327370e-16 0.000000e+00
  -6.971282e-16 -7.813504e-16 0.000000e+00
  -6.693571e-16 -8.128701e-16 0.000000e+00
  -6.398698e-16 -8.278223e-16 0.000000e+00
  -6.250349e-16 -8.305976e-16 0.000000e+00
  -4.009405e-16 -8.429347e-17 0.000000e+00
  -1.045653e-15 -2.462922e-16 0.000000e+00
  -7.953848e-16 -4.292538e-16 0.000000e+00
  -8.031047e-16 -5.643810e-16 0.000000e+00
  -7.286900e-16 -6.651264e-16 0.000000e+00
  -6.580840e-16 -7.347182e-16 0.000000e+00
  -6.451450e-16 -7.848097e-16 0.000000e+00
  -6.286781e-16 -8.170507e-16 0.000000e+00
  -6.236716e-16 -8.351450e-16 0.000000e+00
  -3.120438e-16 -7.243563e-17 0.000000e+00
  -8.289579e-16 -2.186771e-16 0.000000e+00
  -6.410695e-16 -3.838388e-16 0.000000e+00
  -6.734540e-16 -5.167508e-16 0.000000e+00
  -6.307593e-16 -6.243296e-16 0.000000e+00
  -5.793568e-16 -7.069002e-16 0.000000e+00
  -5.870473e-16 -7.714269e-16 0.000000e+00
  -5.824438e-16 -8.186140e-16 0.000000e+00
  -5.908955e-16 -8.514117e-16 0.000000e+00
  -2.392595e-16 -7.518393e-17 0.000000e+00
  -6.475274e-16 -2.095647e-16 0.000000e+00
  -5.079770e-16 -3.643382e-16 0.000000e+00
  -5.547245e-16 -4.945798e-16 0.000000e+00
  -5.369638e-16 -6.060519e-16 0.000000e+00
  -5.036139e-16 -6.971230e-16 0.000000e+00
  -5.282678e-16 -7.726680e-16 0.000000e+00
  -5.372819e-16 -8.327764e-16 0.000000e+00
  -5.589148e-16 -8.795277e-16 0.000000e+00
  -1.813170e-16 -7.839455e-17 0.000000e+00
  -4.779329e-16 -2.076579e-16 0.000000e+00
  -3.845530e-16 -3.612717e-16 0.000000e+00
  -4.392910e-16 -4.919760e-16 0.000000e+00
  -4.427798e-16 -6.063109e-16 0.000000e+00
  -4.287205e-16 -7.031871e-16 0.000000e+00
  -4.615497e-16 -7.869761e-16 0.000000e+00
  -4.863007e-16 -8.583941e-16 0.000000e+00
  -5.177413e-16 -9.186032e-16 0.000000e+00
  -1.081747e-16 -7.071174e-17 0.000000e+00
  -3.014060e-16 -2.175652e-16 0.000000e+00
  -2.528707e-16 -3.768355e-16 0.000000e+00
  -3.203894e-16 -5.089320e-16 0.000000e+00
  -3.414203e-16 -6.244865e-16 0.000000e+00
  -3.386395e-16 -7.244749e-16 0.000000e+00
  -3.853326e-16 -8.146309e-16 0.000000e+00
  -4.174774e-16 -8.958755e-16 0.000000e+00
  -4.572235e-16 -9.693081e-16 0.000000e+00
  -4.221000e-17 -9.104010e-17 0.000000e+00
  -9.655321e-17 -2.291906e-16 0.000000e+00
  -1.123023e-16 -4.111755e-16 0.000000e+00
  -1.964529e-16 -5.401968e-16 0.000000e+00
  -2.343362e-16 -6.503674e-16 0.000000e+00
  -2.409935e-16 -7.506383e-16 0.000000e+00
  -2.932770e-16 -8.440778e-16 0.000000e+00
  -3.308472e-16 -9.332781e-16 0.000000e+00
  -3.755728e-16 -1.018587e-15 0.000000e+00
  1.244828e-16 9.699007e-18 0.000000e+00
  1.511036e-16 -3.265412e-16 0.000000e+00
  -1.527050e-17 -4.948799e-16 0.000000e+00
  -8.822890e-17 -5.932733e-16 0.000000e+00
  -1.422932e-16 -6.984760e-16 0.000000e+00
  -1.529707e-16 -7.957450e-16 0.000000e+00
  -2.090900e-16 -8.924465e-16 0.000000e+00
  -2.478166e-16 -9.895008e-16 0.000000e+00
  -2.909299e-16 -1.087428e-15 0.000000e+00
  -2.742751e-16 -1.019708e-15 0.000000e+00
  -1.915525e-16 -5.461213e-16 0.000000e+00
  -2.284625e-16 -9.298124e-16 0.000000e+00
  -1.415155e-16 -4.964679e-16 0.000000e+00
  -2.183202e-16 -8.377849e-16 0.000000e+00
  -1.600206e-16 -4.424505e-16 0.000000e+00
  -2.134990e-16 -7.403469e-16 0.000000e+00
  -1.127360e-16 -3.968535e-16 0.000000e+00
  -1.985793e-16 -6.473845e-16 0.000000e+00
  -8.543397e-17 -3.349441e-16 0.000000e+00
  -1.756857e-16 -5.390943e-16 0.000000e+00
  -1.521597e-16 -2.922114e-16 0.000000e+00
  -2.195003e-16 -4.441745e-16 0.000000e+00
  -3.662297e-17 -2.240723e-16 0.000000e+00
  -1.515029e-16 -3.258917e-16 0.000000e+00
  -1.601535e-16 -1.808998e-16 0.000000e+00
  -2.250666e-16 -2.311371e-16 0.000000e+00
  -1.847670e-17 -1.108806e-16 0.000000e+00
  -1.427327e-16 -9.698283e-17 0.000000e+00
  -1.587654e-16 -6.110443e-17 0.000000e+00
  -2.273302e-16 -3.854095e-17 0.000000e+00
  -1.167200e-17 -9.815408e-18 0.000000e+00
  -3.889619e-16 -8.499703e-16 0.000000e+00
  -3.622033e-16 -7.801606e-16 0.000000e+00
  -3.518479e-16 -7.078776e-16 0.000000e+00
  -3.264419e-16 -6.321653e-16 0.000000e+00
  -3.455308e-16 -5.502978e-16 0.000000e+00
  -3.323007e-16 -4.694423e-16 0.000000e+00
  -3.366905e-16 -3.766423e-16 0.000000e+00
  -3.440962e-16 -2.909338e-16 0.000000e+00
  -3.330598e-16 -1.916243e-16 0.000000e+00
  -3.549434e-16 -9.404176e-17 0.000000e+00
  -3.237088e-16 -2.387414e-17 0.000000e+00
  -4.656685e-16 -8.571472e-16 0.000000e+00
  -4.315694e-16 -7.940331e-16 0.000000e+00
  -4.444867e-16 -7.258516e-16 0.000000e+00
  -4.261365e-16 -6.530909e-16 0.000000e+00
  -4.320659e-16 -5.745224e-16 0.000000e+00
  -4.415875e-16 -4.889687e-16 0.000000e+00
  -4.524125e-16 -4.007990e-16 0.000000e+00
  -4.518165e-16 -3.023229e-16 0.000000e+00
  -4.676605e-16 -2.096436e-16 0.000000e+00
  -4.595618e-16 -9.311845e-17 0.000000e+00
  -4.747319e-16 -3.220568e-17 0.000000e+00
  -5.419731e-16 -8.248039e-16 0.000000e+00
  -5.176063e-16 -7.743156e-16 0.000000e+00
  -5.258920e-16 -7.166750e-16 0.000000e+00
  -5.250014e-16 -6.518686e-16 0.000000e+00
  -5.457702e-16 -5.791532e-16 0.000000e+00
  -5.535149e-16 -4.985245e-16 0.000000e+00
  -5.719572e-16 -4.095175e-16 0.000000e+00
  -5.892588e-16 -3.143015e-16 0.000000e+00
  -5.917386e-16 -2.143483e-16 0.000000e+00
  -6.106962e-16 -1.002828e-16 0.000000e+00
  -5.968937e-16 -3.007977e-17 0.000000e+00
  -6.020792e-16 -8.192489e-16 0.000000e+00
  -5.834477e-16 -7.772818e-16 0.000000e+00
  -6.058186e-16 -7.276510e-16 0.000000e+00
  -6.069489e-16 -6.679443e-16 0.000000e+00
  -6.347361e-16 -5.992031e-16 0.000000e+00
  -6.646389e-16 -5.193205e-16 0.000000e+00
  -6.865302e-16 -4.305035e-16 0.000000e+00
  -7.087414e-16 -3.308554e-16 0.000000e+00
  -7.274463e-16 -2.283544e-16 0.000000e+00
  -7.431649e-16 -1.048090e-16 0.000000e+00
  -7.363635e-16 -3.342796e-17 0.000000e+00
  -6.076229e-16 -8.148245e-16 0.000000e+00
  -6.007964e-16 -7.842879e-16 0.000000e+00
  -6.299643e-16 -7.422989e-16 0.000000e+00
  -6.501053e-16 -6.905941e-16 0.000000e+00
  -6.807080e-16 -6.250361e-16 0.000000e+00
  -7.182029e-16 -5.480413e-16 0.000000e+00
  -7.589275e-16 -4.573707e-16 0.000000e+00
  -7.858029e-16 -3.544861e-16 0.000000e+00
  -8.128626e-16 -2.454630e-16 0.000000e+00
  -8.298475e-16 -1.132976e-16 0.000000e+00
  -8.349367e-16 -3.543460e-17 0.000000e+00
  -6.427714e-16 -8.224902e-16 0.000000e+00
  -6.489282e-16 -8.025076e-16 0.000000e+00
  -6.938692e-16 -7.715658e-16 0.000000e+00
  -7.075155e-16 -7.257243e-16 0.000000e+00
  -7.850632e-16 -6.665398e-16 0.000000e+00
  -8.128888e-16 -5.899786e-16 0.000000e+00
  -8.775931e-16 -4.981308e-16 0.000000e+00
  -9.137661e-16 -3.892906e-16 0.000000e+00
  -9.564429e-16 -2.708971e-16 0.000000e+00
  -9.755357e-16 -1.262358e-16 0.000000e+00
  -9.836645e-16 -3.884788e-17 0.000000e+00
  -6.595118e-16 -8.406710e-16 0.000000e+00
  -6.705710e-16 -8.338423e-16 0.000000e+00
  -7.241655e-16 -8.127469e-16 0.000000e+00
  -7.795384e-16 -7.771218e-16 0.000000e+00
  -8.314571e-16 -7.228841e-16 0.000000e+00
  -9.140757e-16 -6.494836e-16 0.000000e+00
  -9.859442e-16 -5.546037e-16 0.000000e+00
  -1.033392e-15 -4.379446e-16 0.000000e+00
  -1.104276e-15 -3.078014e-16 0.000000e+00
  -1.117946e-15 -1.430468e-16 0.000000e+00
  -1.147297e-15 -4.557943e-17 0.000000e+00
  -6.383949e-16 -8.712727e-16 0.000000e+00
  -6.617841e-16 -8.779572e-16 0.000000e+00
  -7.385757e-16 -8.700665e-16 0.000000e+00
  -7.918384e-16 -8.453063e-16 0.000000e+00
  -8.892375e-16 -7.998382e-16 0.000000e+00
  -9.781612e-16 -7.298190e-16 0.000000e+00
  -1.071620e-15 -6.330499e-16 0.000000e+00
  -1.165187e-15 -5.061181e-16 0.000000e+00
  -1.226450e-15 -3.592899e-16 0.000000e+00
  -1.288991e-15 -1.687993e-16 0.000000e+00
  -1.285391e-15 -5.143340e-17 0.000000e+00
  -6.156023e-16 -9.144189e-16 0.000000e+00
  -6.544505e-16 -9.359651e-16 0.000000e+00
  -7.503591e-16 -9.442026e-16 0.000000e+00
  -8.104667e-16 -9.336951e-16 0.000000e+00
  -9.505534e-16 -9.008205e-16 0.000000e+00
  -1.052647e-15 -8.378295e-16 0.000000e+00
  -1.187491e-15 -7.401068e-16 0.000000e+00
  -1.313631e-15 -6.016253e-16 0.000000e+00
  -1.402438e-15 -4.327599e-16 0.000000e+00
  -1.489441e-15 -2.031799e-16 0.000000e+00
  -1.495421e-15 -7.079528e-17 0.000000e+00
  -5.853524e-16 -9.686479e-16 0.000000e+00
  -6.384366e-16 -1.008342e-15 0.000000e+00
  -7.329064e-16 -1.034526e-15 0.000000e+00
  -8.503856e-16 -1.045142e-15 0.000000e+00
  -9.726192e-16 -1.029929e-15 0.000000e+00
  -1.137790e-15 -9.813967e-16 0.000000e+00
  -1.322731e-15 -8.869439e-16 0.000000e+00
  -1.466733e-15 -7.363043e-16 0.000000e+00
  -1.644873e-15 -5.360645e-16 0.000000e+00
  -1.726380e-15 -2.561475e-16 0.000000e+00
  -1.761255e-15 -5.130429e-17 0.000000e+00
  -5.309886e-16 -1.036290e-15 0.000000e+00
  -5.939645e-16 -1.095027e-15 0.000000e+00
  -7.099383e-16 -1.146624e-15 0.000000e+00
  -8.201280e-16 -1.183059e-15 0.000000e+00
  -1.001445e-15 -1.199246e-15 0.000000e+00
  -1.194334e-15 -1.176809e-15 0.000000e+00
  -1.428612e-15 -1.100459e-15 0.000000e+00
  -1.664724e-15 -9.423583e-16 0.000000e+00
  -1.900651e-15 -7.073996e-16 0.000000e+00
  -2.014229e-15 -3.193110e-16 0.000000e+00
  -2.187865e-15 -1.666145e-16 0.000000e+00
  -4.527451e-16 -1.101445e-15 0.000000e+00
  -5.196232e-16 -1.182052e-15 0.000000e+00
  -6.401777e-16 -1.259434e-15 0.000000e+00
  -7.719716e-16 -1.331915e-15 0.000000e+00
  -9.641000e-16 -1.388339e-15 0.000000e+00
  -1.209752e-15 -1.414254e-15 0.000000e+00
  -1.512860e-15 -1.373187e-15 0.000000e+00