# vtk DataFile Version 2.0
obtained via hydraulicmodule
ASCII
DATASET UNSTRUCTURED_GRID
POINTS 2146 double
 1.00000000e+03  0.00000000e+00  0.00000000e+00
 1.08333333e+03  0.00000000e+00  0.00000000e+00
 1.08333333e+03  8.33333333e+01  0.00000000e+00
 1.00000000e+03  8.33333333e+01  0.00000000e+00
 1.08333333e+03  1.66666667e+02  0.00000000e+00
 1.00000000e+03  1.66666667e+02  0.00000000e+00
 1.08333333e+03  2.50000000e+02  0.00000000e+00
 1.00000000e+03  2.50000000e+02  0.00000000e+00
 1.08333333e+03  3.33333333e+02  0.00000000e+00
 1.00000000e+03  3.33333333e+02  0.00000000e+00
 1.08333333e+03  4.16666667e+02  0.00000000e+00
 1.00000000e+03  4.16666667e+02  0.00000000e+00
 1.08333333e+03  5.00000000e+02  0.00000000e+00
 1.00000000e+03  5.00000000e+02  0.00000000e+00
 1.16666667e+03  0.00000000e+00  0.00000000e+00
 1.16666667e+03  8.33333333e+01  0.00000000e+00
 1.16666667e+03  1.66666667e+02  0.00000000e+00
 1.16666667e+03  2.50000000e+02  0.00000000e+00
 1.16666667e+03  3.33333333e+02  0.00000000e+00
 1.16666667e+03  4.16666667e+02  0.00000000e+00
 1.16666667e+03  5.00000000e+02  0.00000000e+00
 1.25000000e+03  0.00000000e+00  0.00000000e+00
 1.25000000e+03  8.33333333e+01  0.00000000e+00
 1.25000000e+03  1.66666667e+02  0.00000000e+00
 1.25000000e+03  2.50000000e+02  0.00000000e+00
 1.25000000e+03  3.33333333e+02  0.00000000e+00
 1.25000000e+03  4.16666667e+02  0.00000000e+00
 1.25000000e+03  5.00000000e+02  0.00000000e+00
 1.08333333e+03  5.83333333e+02  0.00000000e+00
 1.00000000e+03  5.83333333e+02  0.00000000e+00
 1.08333333e+03  6.66666667e+02  0.00000000e+00
 1.00000000e+03  6.66666667e+02  0.00000000e+00
 1.08333333e+03  7.50000000e+02  0.00000000e+00
 1.00000000e+03  7.50000000e+02  0.00000000e+00
 1.08333333e+03  8.33333333e+02  0.00000000e+00
 1.00000000e+03  8.33333333e+02  0.00000000e+00
 1.08333333e+03  9.16666667e+02  0.00000000e+00
 1.00000000e+03  9.16666667e+02  0.00000000e+00
 1.08333333e+03  1.00000000e+03  0.00000000e+00
 1.00000000e+03  1.00000000e+03  0.00000000e+00
 1.16666667e+03  5.83333333e+02  0.00000000e+00
 1.16666667e+03  6.66666667e+02  0.00000000e+00
 1.16666667e+03  7.50000000e+02  0.00000000e+00
 1.16666667e+03  8.33333333e+02  0.00000000e+00
 1.16666667e+03  9.16666667e+02  0.00000000e+00
 1.16666667e+03  1.00000000e+03  0.00000000e+00
 1.25000000e+03  5.83333333e+02  0.00000000e+00
 1.25000000e+03  6.66666667e+02  0.00000000e+00
 1.25000000e+03  7.50000000e+02  0.00000000e+00
 1.25000000e+03  8.33333333e+02  0.00000000e+00
 1.25000000e+03  9.16666667e+02  0.00000000e+00
 1.25000000e+03  1.00000000e+03  0.00000000e+00
 3.50000000e+03  5.00000000e+02  0.00000000e+00
 3.58333333e+03  5.00000000e+02  0.00000000e+00
 3.58333333e+03  5.83333333e+02  0.00000000e+00
 3.50000000e+03  5.83333333e+02  0.00000000e+00
 3.58333333e+03  6.66666667e+02  0.00000000e+00
 3.50000000e+03  6.66666667e+02  0.00000000e+00
 3.58333333e+03  7.50000000e+02  0.00000000e+00
 3.50000000e+03  7.50000000e+02  0.00000000e+00
 3.58333333e+03  8.33333333e+02  0.00000000e+00
 3.50000000e+03  8.33333333e+02  0.00000000e+00
 3.58333333e+03  9.16666667e+02  0.00000000e+00
 3.50000000e+03  9.16666667e+02  0.00000000e+00
 3.58333333e+03  1.00000000e+03  0.00000000e+00
 3.50000000e+03  1.00000000e+03  0.00000000e+00
 3.66666667e+03  5.00000000e+02  0.00000000e+00
 3.66666667e+03  5.83333333e+02  0.00000000e+00
 3.66666667e+03  6.66666667e+02  0.00000000e+00
 3.66666667e+03  7.50000000e+02  0.00000000e+00
 3.66666667e+03  8.33333333e+02  0.00000000e+00
 3.66666667e+03  9.16666667e+02  0.00000000e+00
 3.66666667e+03  1.00000000e+03  0.00000000e+00
 3.75000000e+03  5.00000000e+02  0.00000000e+00
 3.75000000e+03  5.83333333e+02  0.00000000e+00
 3.75000000e+03  6.66666667e+02  0.00000000e+00
 3.75000000e+03  7.50000000e+02  0.00000000e+00
 3.75000000e+03  8.33333333e+02  0.00000000e+00
 3.75000000e+03  9.16666667e+02  0.00000000e+00
 3.75000000e+03  1.00000000e+03  0.00000000e+00
 1.08333333e+03  1.08333333e+03  0.00000000e+00
 1.00000000e+03  1.08333333e+03  0.00000000e+00
 1.08333333e+03  1.16666667e+03  0.00000000e+00
 1.00000000e+03  1.16666667e+03  0.00000000e+00
 1.08333333e+03  1.25000000e+03  0.00000000e+00
 1.00000000e+03  1.25000000e+03  0.00000000e+00
 1.16666667e+03  1.08333333e+03  0.00000000e+00
 1.16666667e+03  1.16666667e+03  0.00000000e+00
 1.16666667e+03  1.25000000e+03  0.00000000e+00
 1.25000000e+03  1.08333333e+03  0.00000000e+00
 1.25000000e+03  1.16666667e+03  0.00000000e+00
 1.25000000e+03  1.25000000e+03  0.00000000e+00
 2.25000000e+03  1.00000000e+03  0.00000000e+00
 2.33333333e+03  1.00000000e+03  0.00000000e+00
 2.33333333e+03  1.08333333e+03  0.00000000e+00
 2.25000000e+03  1.08333333e+03  0.00000000e+00
 2.33333333e+03  1.16666667e+03  0.00000000e+00
 2.25000000e+03  1.16666667e+03  0.00000000e+00
 2.33333333e+03  1.25000000e+03  0.00000000e+00
 2.25000000e+03  1.25000000e+03  0.00000000e+00
 2.41666667e+03  1.00000000e+03  0.00000000e+00
 2.41666667e+03  1.08333333e+03  0.00000000e+00
 2.41666667e+03  1.16666667e+03  0.00000000e+00
 2.41666667e+03  1.25000000e+03  0.00000000e+00
 2.50000000e+03  1.00000000e+03  0.00000000e+00
 2.50000000e+03  1.08333333e+03  0.00000000e+00
 2.50000000e+03  1.16666667e+03  0.00000000e+00
 2.50000000e+03  1.25000000e+03  0.00000000e+00
 3.58333333e+03  1.08333333e+03  0.00000000e+00
 3.50000000e+03  1.08333333e+03  0.00000000e+00
 3.58333333e+03  1.16666667e+03  0.00000000e+00
 3.50000000e+03  1.16666667e+03  0.00000000e+00
 3.58333333e+03  1.25000000e+03  0.00000000e+00
 3.50000000e+03  1.25000000e+03  0.00000000e+00
 3.66666667e+03  1.08333333e+03  0.00000000e+00
 3.66666667e+03  1.16666667e+03  0.00000000e+00
 3.66666667e+03  1.25000000e+03  0.00000000e+00
 3.75000000e+03  1.08333333e+03  0.00000000e+00
 3.75000000e+03  1.16666667e+03  0.00000000e+00
 3.75000000e+03  1.25000000e+03  0.00000000e+00
 1.08333333e+03  1.33333333e+03  0.00000000e+00
 1.00000000e+03  1.33333333e+03  0.00000000e+00
 1.08333333e+03  1.41666667e+03  0.00000000e+00
 1.00000000e+03  1.41666667e+03  0.00000000e+00
 1.08333333e+03  1.50000000e+03  0.00000000e+00
 1.00000000e+03  1.50000000e+03  0.00000000e+00
 1.08333333e+03  1.58333333e+03  0.00000000e+00
 1.00000000e+03  1.58333333e+03  0.00000000e+00
 1.08333333e+03  1.66666667e+03  0.00000000e+00
 1.00000000e+03  1.66666667e+03  0.00000000e+00
 1.08333333e+03  1.75000000e+03  0.00000000e+00
 1.00000000e+03  1.75000000e+03  0.00000000e+00
 1.08333333e+03  1.83333333e+03  0.00000000e+00
 1.00000000e+03  1.83333333e+03  0.00000000e+00
 1.08333333e+03  1.91666667e+03  0.00000000e+00
 1.00000000e+03  1.91666667e+03  0.00000000e+00
 1.08333333e+03  2.00000000e+03  0.00000000e+00
 1.00000000e+03  2.00000000e+03  0.00000000e+00
 1.16666667e+03  1.33333333e+03  0.00000000e+00
 1.16666667e+03  1.41666667e+03  0.00000000e+00
 1.16666667e+03  1.50000000e+03  0.00000000e+00
 1.16666667e+03  1.58333333e+03  0.00000000e+00
 1.16666667e+03  1.66666667e+03  0.00000000e+00
 1.16666667e+03  1.75000000e+03  0.00000000e+00
 1.16666667e+03  1.83333333e+03  0.00000000e+00
 1.16666667e+03  1.91666667e+03  0.00000000e+00
 1.16666667e+03  2.00000000e+03  0.00000000e+00
 1.25000000e+03  1.33333333e+03  0.00000000e+00
 1.25000000e+03  1.41666667e+03  0.00000000e+00
 1.25000000e+03  1.50000000e+03  0.00000000e+00
 1.25000000e+03  1.58333333e+03  0.00000000e+00
 1.25000000e+03  1.66666667e+03  0.00000000e+00
 1.25000000e+03  1.75000000e+03  0.00000000e+00
 1.25000000e+03  1.83333333e+03  0.00000000e+00
 1.25000000e+03  1.91666667e+03  0.00000000e+00
 1.25000000e+03  2.00000000e+03  0.00000000e+00
 2.33333333e+03  1.33333333e+03  0.00000000e+00
 2.25000000e+03  1.33333333e+03  0.00000000e+00
 2.33333333e+03  1.41666667e+03  0.00000000e+00
 2.25000000e+03  1.41666667e+03  0.00000000e+00
 2.33333333e+03  1.50000000e+03  0.00000000e+00
 2.25000000e+03  1.50000000e+03  0.00000000e+00
 2.33333333e+03  1.58333333e+03  0.00000000e+00
 2.25000000e+03  1.58333333e+03  0.00000000e+00
 2.33333333e+03  1.66666667e+03  0.00000000e+00
 2.25000000e+03  1.66666667e+03  0.00000000e+00
 2.33333333e+03  1.75000000e+03  0.00000000e+00
 2.25000000e+03  1.75000000e+03  0.00000000e+00
 2.33333333e+03  1.83333333e+03  0.00000000e+00
 2.25000000e+03  1.83333333e+03  0.00000000e+00
 2.33333333e+03  1.91666667e+03  0.00000000e+00
 2.25000000e+03  1.91666667e+03  0.00000000e+00
 2.33333333e+03  2.00000000e+03  0.00000000e+00
 2.25000000e+03  2.00000000e+03  0.00000000e+00
 2.41666667e+03  1.33333333e+03  0.00000000e+00
 2.41666667e+03  1.41666667e+03  0.00000000e+00
 2.41666667e+03  1.50000000e+03  0.00000000e+00
 2.41666667e+03  1.58333333e+03  0.00000000e+00
 2.41666667e+03  1.66666667e+03  0.00000000e+00
 2.41666667e+03  1.75000000e+03  0.00000000e+00
 2.41666667e+03  1.83333333e+03  0.00000000e+00
 2.41666667e+03  1.91666667e+03  0.00000000e+00
 2.41666667e+03  2.00000000e+03  0.00000000e+00
 2.50000000e+03  1.33333333e+03  0.00000000e+00
 2.50000000e+03  1.41666667e+03  0.00000000e+00
 2.50000000e+03  1.50000000e+03  0.00000000e+00
 2.50000000e+03  1.58333333e+03  0.00000000e+00
 2.50000000e+03  1.66666667e+03  0.00000000e+00
 2.50000000e+03  1.75000000e+03  0.00000000e+00
 2.50000000e+03  1.83333333e+03  0.00000000e+00
 2.50000000e+03  1.91666667e+03  0.00000000e+00
 2.50000000e+03  2.00000000e+03  0.00000000e+00
 3.58333333e+03  1.33333333e+03  0.00000000e+00
 3.50000000e+03  1.33333333e+03  0.00000000e+00
 3.58333333e+03  1.41666667e+03  0.00000000e+00
 3.50000000e+03  1.41666667e+03  0.00000000e+00
 3.58333333e+03  1.50000000e+03  0.00000000e+00
 3.50000000e+03  1.50000000e+03  0.00000000e+00
 3.58333333e+03  1.58333333e+03  0.00000000e+00
 3.50000000e+03  1.58333333e+03  0.00000000e+00
 3.58333333e+03  1.66666667e+03  0.00000000e+00
 3.50000000e+03  1.66666667e+03  0.00000000e+00
 3.58333333e+03  1.75000000e+03  0.00000000e+00
 3.50000000e+03  1.75000000e+03  0.00000000e+00
 3.58333333e+03  1.83333333e+03  0.00000000e+00
 3.50000000e+03  1.83333333e+03  0.00000000e+00
[...]
POINT_DATA 2146
VECTORS vectors float
 1.971123e-09 1.032960e-09 0.000000e+00
  3.727488e-10 -2.754041e-10 0.000000e+00
  3.722470e-10 -2.765396e-10 0.000000e+00
  1.978367e-09 2.639085e-09 0.000000e+00
  3.707917e-10 -2.799691e-10 0.000000e+00
  1.999569e-09 5.871570e-09 0.000000e+00
  3.683512e-10 -2.855576e-10 0.000000e+00
  2.032922e-09 9.158054e-09 0.000000e+00
  3.649223e-10 -2.927781e-10 0.000000e+00
  2.075390e-09 1.252288e-08 0.000000e+00
  3.604951e-10 -3.008935e-10 0.000000e+00
  2.122613e-09 1.598346e-08 0.000000e+00
  3.550598e-10 -3.089626e-10 0.000000e+00
  2.168979e-09 1.954765e-08 0.000000e+00
  3.729251e-10 -3.525733e-10 0.000000e+00
  3.724202e-10 -3.528415e-10 0.000000e+00
  3.709556e-10 -3.532222e-10 0.000000e+00
  3.684999e-10 -3.532203e-10 0.000000e+00
  3.650507e-10 -3.525356e-10 0.000000e+00
  3.605987e-10 -3.507743e-10 0.000000e+00
  3.551352e-10 -3.474727e-10 0.000000e+00
  2.428121e-09 -2.786325e-09 0.000000e+00
  2.427288e-09 -4.844380e-09 0.000000e+00
  2.424490e-09 -8.958872e-09 0.000000e+00
  2.418648e-09 -1.306788e-08 0.000000e+00
  2.408035e-09 -1.716496e-08 0.000000e+00
  2.390304e-09 -2.123939e-08 0.000000e+00
  2.362674e-09 -2.527519e-08 0.000000e+00
  3.486086e-10 -3.158932e-10 0.000000e+00
  2.207917e-09 2.321145e-08 0.000000e+00
  3.411389e-10 -3.205487e-10 0.000000e+00
  2.232515e-09 2.695747e-08 0.000000e+00
  3.326549e-10 -3.219104e-10 0.000000e+00
  2.236513e-09 3.075488e-08 0.000000e+00
  3.231697e-10 -3.192826e-10 0.000000e+00
  2.215543e-09 3.456155e-08 0.000000e+00
  3.127067e-10 -3.125002e-10 0.000000e+00
  2.168428e-09 3.832863e-08 0.000000e+00
  3.012985e-10 -3.020957e-10 0.000000e+00
  2.098205e-09 4.200762e-08 0.000000e+00
  3.486541e-10 -3.421540e-10 0.000000e+00
  3.411541e-10 -3.344151e-10 0.000000e+00
  3.326413e-10 -3.240373e-10 0.000000e+00
  3.231306e-10 -3.111057e-10 0.000000e+00
  3.126467e-10 -2.961144e-10 0.000000e+00
  3.012232e-10 -2.800347e-10 0.000000e+00
  2.322257e-09 -2.925070e-08 0.000000e+00
  2.266578e-09 -3.313902e-08 0.000000e+00
  2.194247e-09 -3.690976e-08 0.000000e+00
  2.105689e-09 -4.053218e-08 0.000000e+00
  2.003791e-09 -4.397966e-08 0.000000e+00
  1.894307e-09 -4.723518e-08 0.000000e+00
  2.611433e-07 -1.717760e-07 0.000000e+00
  2.440816e-07 -1.491035e-08 0.000000e+00
  1.662146e-10 -4.670049e-08 0.000000e+00
  4.098543e-08 -1.936203e-07 0.000000e+00
  2.035937e-10 -2.961707e-09 0.000000e+00
  1.399620e-08 -1.116208e-07 0.000000e+00
  2.284762e-10 -1.534492e-09 0.000000e+00
  8.811006e-09 -8.484298e-08 0.000000e+00
  2.479391e-10 -1.036439e-09 0.000000e+00
  6.110342e-09 -6.934524e-08 0.000000e+00
  2.639605e-10 -7.565801e-10 0.000000e+00
  4.583937e-09 -5.854871e-08 0.000000e+00
  2.774980e-10 -5.782002e-10 0.000000e+00
  3.585709e-09 -5.053531e-08 0.000000e+00
  2.434025e-07 2.840932e-08 0.000000e+00
  1.660557e-10 -4.655497e-08 0.000000e+00
  2.035739e-10 -2.949612e-09 0.000000e+00
  2.285166e-10 -1.539032e-09 0.000000e+00
  2.480065e-10 -1.049666e-09 0.000000e+00
  2.640456e-10 -7.780242e-10 0.000000e+00
  2.775991e-10 -6.081678e-10 0.000000e+00
  2.599040e-07 2.132183e-07 0.000000e+00
  4.094212e-08 1.201019e-07 0.000000e+00
  1.412746e-08 9.250961e-08 0.000000e+00
  8.967606e-09 7.414837e-08 0.000000e+00
  6.292483e-09 6.036076e-08 0.000000e+00
  4.797243e-09 5.035211e-08 0.000000e+00
  3.837047e-09 4.260565e-08 0.000000e+00
  2.889850e-10 -2.893864e-10 0.000000e+00
  2.012660e-09 4.555917e-08 0.000000e+00
  2.758087e-10 -2.764837e-10 0.000000e+00
  1.924334e-09 4.896251e-08 0.000000e+00
  2.618084e-10 -2.662786e-10 0.000000e+00
  1.850322e-09 5.222483e-08 0.000000e+00
  2.889003e-10 -2.643389e-10 0.000000e+00
  2.757203e-10 -2.510021e-10 0.000000e+00
  2.617213e-10 -2.425379e-10 0.000000e+00
  1.785982e-09 -5.029720e-08 0.000000e+00
  1.690493e-09 -5.318561e-08 0.000000e+00
  1.622556e-09 -5.594778e-08 0.000000e+00
  1.323528e-07 -1.159226e-07 0.000000e+00
  1.143511e-07 -1.338952e-08 0.000000e+00
  7.445225e-11 -2.174378e-08 0.000000e+00
  2.029884e-08 -1.295790e-07 0.000000e+00
  8.932594e-11 -1.382347e-09 0.000000e+00
  6.178424e-09 -8.989256e-08 0.000000e+00
  9.996107e-11 -6.697270e-10 0.000000e+00
  3.717310e-09 -7.793277e-08 0.000000e+00
  9.447557e-08 -3.337149e-10 0.000000e+00
  6.878515e-11 -1.815758e-08 0.000000e+00
  8.703281e-11 -1.077731e-09 0.000000e+00
  9.909639e-11 -5.712964e-10 0.000000e+00
  9.055293e-08 3.983690e-08 0.000000e+00
  1.423251e-08 1.223149e-08 0.000000e+00
  5.217886e-09 2.932211e-09 0.000000e+00
  3.253987e-09 -3.874738e-09 0.000000e+00
  2.891373e-10 -4.529326e-10 0.000000e+00
  2.878022e-09 -4.436772e-08 0.000000e+00
  2.992777e-10 -3.595071e-10 0.000000e+00
  2.347202e-09 -3.952918e-08 0.000000e+00
  3.082103e-10 -2.871114e-10 0.000000e+00
  1.934654e-09 -3.569844e-08 0.000000e+00
  2.892547e-10 -4.916576e-10 0.000000e+00
  2.994112e-10 -4.067773e-10 0.000000e+00
  3.083588e-10 -3.421717e-10 0.000000e+00
  3.171841e-09 3.639912e-08 0.000000e+00
  2.684299e-09 3.130210e-08 0.000000e+00
  2.311967e-09 2.704279e-08 0.000000e+00
  2.470106e-10 -2.625280e-10 0.000000e+00
  1.812573e-09 5.539055e-08 0.000000e+00
  2.314176e-10 -2.702710e-10 0.000000e+00
  1.839968e-09 5.855220e-08 0.000000e+00
  2.149919e-10 -2.970397e-10 0.000000e+00
  1.974496e-09 6.186796e-08 0.000000e+00
  1.976307e-10 -3.559869e-10 0.000000e+00
  2.287538e-09 6.559763e-08 0.000000e+00
  1.791173e-10 -4.756292e-10 0.000000e+00
  2.919776e-09 7.017463e-08 0.000000e+00
  1.590116e-10 -7.240546e-10 0.000000e+00
  4.251850e-09 7.650300e-08 0.000000e+00
  1.362576e-10 -1.530203e-09 0.000000e+00
  7.043473e-09 8.496906e-08 0.000000e+00
  1.065950e-10 -2.740681e-08 0.000000e+00
  2.314111e-08 9.891757e-08 0.000000e+00
  1.440755e-07 2.085925e-08 0.000000e+00
  1.547522e-07 1.541414e-07 0.000000e+00
  2.469285e-10 -2.421803e-10 0.000000e+00
  2.313433e-10 -2.544108e-10 0.000000e+00
  2.149269e-10 -2.862709e-10 0.000000e+00
  1.975754e-10 -3.505682e-10 0.000000e+00
  1.790721e-10 -4.756915e-10 0.000000e+00
  1.589769e-10 -7.299238e-10 0.000000e+00
  1.362366e-10 -1.544156e-09 0.000000e+00
  1.065960e-10 -2.744631e-08 0.000000e+00
  1.441343e-07 -9.754253e-09 0.000000e+00
  1.600803e-09 -5.866592e-08 0.000000e+00
  1.650530e-09 -6.146887e-08 0.000000e+00
  1.810452e-09 -6.455513e-08 0.000000e+00
  2.149363e-09 -6.824329e-08 0.000000e+00
  2.806220e-09 -7.309978e-08 0.000000e+00
  4.160903e-09 -8.026385e-08 0.000000e+00
  6.973181e-09 -9.368032e-08 0.000000e+00
  2.310260e-08 -1.396146e-07 0.000000e+00
  1.548314e-07 -1.212670e-07 0.000000e+00
  1.089076e-10 -4.479370e-10 0.000000e+00
  2.530511e-09 -7.142898e-08 0.000000e+00
  1.167005e-10 -3.398784e-10 0.000000e+00
  1.958257e-09 -6.692662e-08 0.000000e+00
  1.236169e-10 -2.858008e-10 0.000000e+00
  1.668590e-09 -6.342179e-08 0.000000e+00
  1.298300e-10 -2.607289e-10 0.000000e+00
  1.539497e-09 -6.041075e-08 0.000000e+00
  1.354481e-10 -2.532527e-10 0.000000e+00
  1.509742e-09 -5.760774e-08 0.000000e+00
  1.405347e-10 -2.569365e-10 0.000000e+00
  1.543896e-09 -5.483456e-08 0.000000e+00
  1.451221e-10 -2.675225e-10 0.000000e+00
  1.617850e-09 -5.197739e-08 0.000000e+00
  1.492215e-10 -2.818089e-10 0.000000e+00
  1.713063e-09 -4.896739e-08 0.000000e+00
  1.528310e-10 -2.972323e-10 0.000000e+00
  1.814442e-09 -4.577076e-08 0.000000e+00
  1.085243e-10 -3.784618e-10 0.000000e+00
  1.164573e-10 -2.673922e-10 0.000000e+00
  1.233866e-10 -1.967218e-10 0.000000e+00
  1.295637e-10 -1.485672e-10 0.000000e+00
  1.351258e-10 -1.144217e-10 0.000000e+00
  1.401480e-10 -8.956007e-11 0.000000e+00
  1.446687e-10 -7.111694e-11 0.000000e+00
  1.487029e-10 -5.723830e-11 0.000000e+00
  1.522518e-10 -4.666853e-11 0.000000e+00
  2.197308e-09 -8.725440e-09 0.000000e+00
  1.583474e-09 -1.204979e-08 0.000000e+00
  1.185367e-09 -1.443445e-08 0.000000e+00
  9.131505e-10 -1.618226e-08 0.000000e+00
  7.205139e-10 -1.748237e-08 0.000000e+00
  5.811789e-10 -1.845900e-08 0.000000e+00
  4.789091e-10 -1.919769e-08 0.000000e+00
  4.030663e-10 -1.975911e-08 0.000000e+00
  3.463730e-10 -2.018726e-08 0.000000e+00
  3.161577e-10 -2.297667e-10 0.000000e+00
  1.607502e-09 -3.265674e-08 0.000000e+00
  3.232947e-10 -1.838687e-10 0.000000e+00
  1.345742e-09 -3.024375e-08 0.000000e+00
  3.297613e-10 -1.470347e-10 0.000000e+00
  1.136017e-09 -2.833540e-08 0.000000e+00
  3.356709e-10 -1.175362e-10 0.000000e+00
  9.685374e-10 -2.683246e-08 0.000000e+00
  3.411159e-10 -9.402066e-11 0.000000e+00
  8.355766e-10 -2.565419e-08 0.000000e+00
  3.461718e-10 -7.537917e-11 0.000000e+00
  7.307545e-10 -2.473471e-08 0.000000e+00
  3.509007e-10 -6.068386e-11 0.000000e+00
  6.487126e-10 -2.402037e-08 0.000000e+00
  3.553534e-10 -4.915699e-11 0.000000e+00
  5.849511e-10 -2.346785e-08 0.000000e+00
  3.595720e-10 -4.015151e-11 0.000000e+00
  5.357243e-10 -2.304241e-08 0.000000e+00
  3.163189e-10 -2.913762e-10 0.000000e+00
  3.234655e-10 -2.504504e-10 0.000000e+00
  3.299383e-10 -2.168600e-10 0.000000e+00
  3.358506e-10 -1.889014e-10 0.000000e+00
  3.412950e-10 -1.653848e-10 0.000000e+00
  3.463475e-10 -1.454518e-10 0.000000e+00
  3.510707e-10 -1.284646e-10 0.000000e+00
  3.555162e-10 -1.139375e-10 0.000000e+00
  3.597266e-10 -1.014926e-10 0.000000e+00
  2.018678e-09 2.343807e-08 0.000000e+00
  1.782163e-09 2.035842e-08 0.000000e+00
  1.588006e-09 1.770837e-08 0.000000e+00
  1.426467e-09 1.541516e-08 0.000000e+00
  1.290726e-09 1.342176e-08 0.000000e+00
  1.175845e-09 1.168235e-08 0.000000e+00
  1.078152e-09 1.015944e-08 0.000000e+00
  9.948419e-10 8.821829e-09 0.000000e+00
  9.237281e-10 7.643162e-09 0.000000e+00
  1.559411e-10 -3.117640e-10 0.000000e+00
  1.909906e-09 -4.238200e-08 0.000000e+00
  1.585399e-10 -3.239296e-10 0.000000e+00
  1.990622e-09 -3.881769e-08 0.000000e+00
  1.606164e-10 -3.328443e-10 0.000000e+00
  2.051287e-09 -3.510979e-08 0.000000e+00
  1.621625e-10 -3.382036e-10 0.000000e+00
  2.090095e-09 -3.129856e-08 0.000000e+00
  1.631748e-10 -3.402065e-10 0.000000e+00
  2.108290e-09 -2.742586e-08 0.000000e+00
  1.636543e-10 -3.394259e-10 0.000000e+00
  2.109374e-09 -2.352960e-08 0.000000e+00
  1.636077e-10 -3.366520e-10 0.000000e+00
  2.098165e-09 -1.963980e-08 0.000000e+00
  1.630503e-10 -3.327365e-10 0.000000e+00
  2.079914e-09 -1.577662e-08 0.000000e+00
  1.620177e-10 -3.284494e-10 0.000000e+00
  2.059619e-09 -1.194993e-08 0.000000e+00
  1.606065e-10 -3.243210e-10 0.000000e+00
  2.041601e-09 -8.160232e-09 0.000000e+00
  1.591801e-10 -3.205381e-10 0.000000e+00
  2.029274e-09 -4.400510e-09 0.000000e+00
  1.586284e-10 -3.186247e-10 0.000000e+00
  2.024912e-09 -2.526859e-09 0.000000e+00
  1.553086e-10 -3.852896e-11 0.000000e+00
  1.578632e-10 -3.218972e-11 0.000000e+00
  1.599053e-10 -2.719075e-11 0.000000e+00
  1.614269e-10 -2.319042e-11 0.000000e+00
  1.624229e-10 -1.993026e-11 0.000000e+00
  1.628912e-10 -1.720883e-11 0.000000e+00
  1.628309e-10 -1.485890e-11 0.000000e+00
  1.622375e-10 -1.271746e-11 0.000000e+00
  1.610890e-10 -1.056571e-11 0.000000e+00
  1.593031e-10 -7.804757e-12 0.000000e+00
  1.566787e-10 -2.747331e-12 0.000000e+00
  1.544423e-10 1.258438e-12 0.000000e+00
  3.036904e-10 -2.051448e-08 0.000000e+00
  2.713031e-10 -2.076475e-08 0.000000e+00
  2.464751e-10 -2.095602e-08 0.000000e+00
  2.271601e-10 -2.110166e-08 0.000000e+00
  2.118042e-10 -2.121165e-08 0.000000e+00
  1.992019e-10 -2.129334e-08 0.000000e+00
  1.883797e-10 -2.135198e-08 0.000000e+00
  1.784740e-10 -2.139104e-08 0.000000e+00
  1.684995e-10 -2.141216e-08 0.000000e+00
  1.569844e-10 -2.141358e-08 0.000000e+00
  1.340726e-10 -2.138812e-08 0.000000e+00
  3.635910e-10 -3.313471e-11 0.000000e+00
  4.979495e-10 -2.271650e-08 0.000000e+00
  3.674391e-10 -2.767246e-11 0.000000e+00
  4.691156e-10 -2.246843e-08 0.000000e+00
  3.711399e-10 -2.341332e-11 0.000000e+00
  4.471913e-10 -2.228126e-08 0.000000e+00
  3.747132e-10 -2.007315e-11 0.000000e+00
  4.305358e-10 -2.214195e-08 0.000000e+00
  3.781754e-10 -1.741988e-11 0.000000e+00
  4.178129e-10 -2.204054e-08 0.000000e+00
  3.815410e-10 -1.525738e-11 0.000000e+00
  4.079039e-10 -2.196968e-08 0.000000e+00
  3.848237e-10 -1.340425e-11 0.000000e+00
  3.998072e-10 -2.192418e-08 0.000000e+00
  3.880419e-10 -1.165246e-11 0.000000e+00
  3.924875e-10 -2.190090e-08 0.000000e+00
  3.912319e-10 -9.668870e-12 0.000000e+00
  3.844518e-10 -2.189920e-08 0.000000e+00
  3.944923e-10 -6.233624e-12 0.000000e+00
  3.731948e-10 -2.191942e-08 0.000000e+00
  3.980383e-10 2.950255e-12 0.000000e+00
  3.346948e-10 -2.200043e-08 0.000000e+00
  4.006727e-10 1.312097e-11 0.000000e+00
  3.637369e-10 -9.083047e-11 0.000000e+00
  3.675762e-10 -8.171038e-11 0.000000e+00
  3.712685e-10 -7.393672e-11 0.000000e+00
  3.748337e-10 -6.734928e-11 0.000000e+00
  3.782878e-10 -6.181612e-11 0.000000e+00
  3.816438e-10 -5.722764e-11 0.000000e+00
  3.849102e-10 -5.349022e-11 0.000000e+00
  3.880874e-10 -5.051483e-11 0.000000e+00
  3.911550e-10 -4.818874e-11 0.000000e+00
  3.940290e-10 -4.628411e-11 0.000000e+00
  3.963374e-10 -4.449408e-11 0.000000e+00
  3.972197e-10 -4.367688e-11 0.000000e+00
  8.630735e-10 6.600943e-09 0.000000e+00
  8.114781e-10 5.675756e-09 0.000000e+00
  7.678011e-10 4.850690e-09 0.000000e+00
  7.311060e-10 4.110884e-09 0.000000e+00
  7.006206e-10 3.443165e-09 0.000000e+00
  6.757074e-10 2.835751e-09 0.000000e+00
  6.558394e-10 2.278002e-09 0.000000e+00
  6.405738e-10 1.760215e-09 0.000000e+00
  6.295124e-10 1.273439e-09 0.000000e+00
  6.222240e-10 8.092906e-10 0.000000e+00
  6.181792e-10 3.596971e-10 0.000000e+00
  6.169211e-10 1.375629e-10 0.000000e+00
  1.869028e-08 1.065147e-07 0.000000e+00
  1.276198e-08 1.058531e-07 0.000000e+00
  1.240398e-08 1.117990e-07 0.000000e+00
  1.791095e-08 1.120391e-07 0.000000e+00
  1.251454e-08 1.175301e-07 0.000000e+00
  1.776404e-08 1.170810e-07 0.000000e+00
  1.336337e-08 1.232744e-07 0.000000e+00
  1.857296e-08 1.217847e-07 0.000000e+00
  1.535760e-08 1.293407e-07 0.000000e+00
  2.076347e-08 1.262817e-07 0.000000e+00
  1.920959e-08 1.360904e-07 0.000000e+00
  2.496424e-08 1.305756e-07 0.000000e+00
  2.632675e-08 1.437973e-07 0.000000e+00
  3.214463e-08 1.342316e-07 0.000000e+00
  3.995131e-08 1.515677e-07 0.000000e+00
  4.330174e-08 1.356431e-07 0.000000e+00
  6.353402e-08 1.529678e-07 0.000000e+00
  5.772283e-08 1.319771e-07 0.000000e+00
  8.898925e-08 1.383091e-07 0.000000e+00
  7.246967e-08 1.217253e-07 0.000000e+00
  6.579772e-09 1.053101e-07 0.000000e+00
  6.445936e-09 1.115348e-07 0.000000e+00
  6.564342e-09 1.177187e-07 0.000000e+00
  7.090767e-09 1.241656e-07 0.000000e+00
  8.279235e-09 1.313540e-07 0.000000e+00
  1.061718e-08 1.400525e-07 0.000000e+00
  1.522362e-08 1.515131e-07 0.000000e+00
  2.520170e-08 1.679485e-07 0.000000e+00
  5.615522e-08 1.880519e-07 0.000000e+00
  1.244804e-07 1.830083e-07 0.000000e+00
  5.659328e-09 -1.113029e-07 0.000000e+00
  5.593231e-09 -1.166263e-07 0.000000e+00
  5.804311e-09 -1.220256e-07 0.000000e+00
  6.434871e-09 -1.278430e-07 0.000000e+00
  7.728469e-09 -1.346009e-07 0.000000e+00
  1.016566e-08 -1.431580e-07 0.000000e+00
  1.486218e-08 -1.550132e-07 0.000000e+00
  2.492206e-08 -1.745929e-07 0.000000e+00
  5.596434e-08 -1.967882e-07 0.000000e+00
  1.243909e-07 -1.700674e-07 0.000000e+00
  1.088122e-08 -1.114226e-07 0.000000e+00
  1.067450e-08 -1.164178e-07 0.000000e+00
  1.098436e-08 -1.213204e-07 0.000000e+00
  1.205205e-08 -1.263813e-07 0.000000e+00
  1.426332e-08 -1.319258e-07 0.000000e+00
  1.831699e-08 -1.383396e-07 0.000000e+00
  2.561404e-08 -1.459919e-07 0.000000e+00
  3.939660e-08 -1.533839e-07 0.000000e+00
  6.311688e-08 -1.535218e-07 0.000000e+00
  8.867830e-08 -1.431614e-07 0.000000e+00
  1.576841e-08 -1.120702e-07 0.000000e+00
  1.525834e-08 -1.165545e-07 0.000000e+00
  1.544681e-08 -1.207244e-07 0.000000e+00
  1.661081e-08 -1.247383e-07 0.000000e+00
  1.914344e-08 -1.287281e-07 0.000000e+00
  2.365428e-08 -1.326936e-07 0.000000e+00
  3.110453e-08 -1.361246e-07 0.000000e+00
  4.249001e-08 -1.373393e-07 0.000000e+00
  5.709874e-08 -1.340761e-07 0.000000e+00
  7.199411e-08 -1.242404e-07 0.000000e+00
  2.018434e-08 -1.131860e-07 0.000000e+00
  1.915928e-08 -1.170133e-07 0.000000e+00
  1.896778e-08 -1.202809e-07 0.000000e+00
  1.986736e-08 -1.230892e-07 0.000000e+00
  2.216132e-08 -1.254559e-07 0.000000e+00
  2.622136e-08 -1.272012e-07 0.000000e+00
  3.240927e-08 -1.277813e-07 0.000000e+00
  4.073371e-08 -1.262662e-07 0.000000e+00
  5.044632e-08 -1.215687e-07 0.000000e+00
  5.993396e-08 -1.131273e-07 0.000000e+00
  2.400634e-08 -1.149888e-07 0.000000e+00
  2.222962e-08 -1.180282e-07 0.000000e+00
  2.141262e-08 -1.202734e-07 0.000000e+00
  2.175739e-08 -1.218264e-07 0.000000e+00
  2.343874e-08 -1.226860e-07 0.000000e+00
  2.659717e-08 -1.226844e-07 0.000000e+00
  3.126216e-08 -1.214558e-07 0.000000e+00
  3.721094e-08 -1.184855e-07 0.000000e+00
  4.384770e-08 -1.132979e-07 0.000000e+00
  5.026140e-08 -1.057167e-07 0.000000e+00
  2.709449e-08 -1.177344e-07 0.000000e+00
  2.432338e-08 -1.198247e-07 0.000000e+00
  2.268878e-08 -1.209238e-07 0.000000e+00
  2.230735e-08 -1.212006e-07 0.000000e+00
  2.321519e-08 -1.207012e-07 0.000000e+00
  2.538279e-08 -1.193291e-07 0.000000e+00
  2.868650e-08 -1.168649e-07 0.000000e+00
  3.285552e-08 -1.130335e-07 0.000000e+00
  3.744631e-08 -1.076154e-07 0.000000e+00
  4.189343e-08 -1.005702e-07 0.000000e+00
  2.922799e-08 -1.217110e-07 0.000000e+00
  2.523824e-08 -1.225862e-07 0.000000e+00
  2.268891e-08 -1.223515e-07 0.000000e+00
  2.155269e-08 -1.212997e-07 0.000000e+00
  2.170452e-08 -1.195430e-07 0.000000e+00
  2.298085e-08 -1.170403e-07 0.000000e+00
  2.517717e-08 -1.136571e-07 0.000000e+00
  2.802544e-08 -1.092338e-07 0.000000e+00
  3.118796e-08 -1.036579e-07 0.000000e+00
  3.428809e-08 -9.692741e-08 0.000000e+00
  2.998579e-08 -1.272189e-07 0.000000e+00
  2.464163e-08 -1.263983e-07 0.000000e+00
  2.125496e-08 -1.245271e-07 0.000000e+00
  1.950429e-08 -1.220516e-07 0.000000e+00
  1.905752e-08 -1.190989e-07 0.000000e+00
  1.963546e-08 -1.156223e-07 0.000000e+00
  2.098762e-08 -1.115056e-07 0.000000e+00
  2.286317e-08 -1.066273e-07 0.000000e+00
  2.499926e-08 -1.009086e-07 0.000000e+00
  2.713244e-08 -9.434728e-08 0.000000e+00
  2.849723e-08 -1.344937e-07 0.000000e+00
  2.203315e-08 -1.310955e-07 0.000000e+00
  1.820675e-08 -1.272023e-07 0.000000e+00
  1.617401e-08 -1.232317e-07 0.000000e+00
  1.539495e-08 -1.191586e-07 0.000000e+00
  1.551343e-08 -1.148440e-07 0.000000e+00
  1.626766e-08 -1.101313e-07 0.000000e+00
  1.743779e-08 -1.048889e-07 0.000000e+00
  1.882249e-08 -9.903498e-08 0.000000e+00
  2.023669e-08 -9.255143e-08 0.000000e+00
  2.327916e-08 -1.430984e-07 0.000000e+00
  1.693445e-08 -1.359563e-07 0.000000e+00
  1.346521e-08 -1.298688e-07 0.000000e+00
  1.164631e-08 -1.244889e-07 0.000000e+00
  1.086208e-08 -1.194578e-07 0.000000e+00
  1.076650e-08 -1.144735e-07 0.000000e+00
  1.113562e-08 -1.093040e-07 0.000000e+00
  1.180169e-08 -1.037845e-07 0.000000e+00
  1.262477e-08 -9.781467e-08 0.000000e+00
  1.348414e-08 -9.135719e-08 0.000000e+00
  1.342417e-08 -1.509852e-07 0.000000e+00
  9.333712e-09 -1.401441e-07 0.000000e+00
  7.236190e-09 -1.321546e-07 0.000000e+00
  6.157123e-09 -1.256877e-07 0.000000e+00
  5.674200e-09 -1.199747e-07 0.000000e+00
  5.570090e-09 -1.145439e-07 0.000000e+00
  5.713943e-09 -1.090866e-07 0.000000e+00
  6.013884e-09 -1.034011e-07 0.000000e+00
  6.397351e-09 -9.736612e-08 0.000000e+00
  6.804124e-09 -9.092723e-08 0.000000e+00
  1.065926e-07 1.145206e-07 0.000000e+00
  8.330568e-08 1.057924e-07 0.000000e+00
  1.098909e-07 8.793768e-08 0.000000e+00
  8.813228e-08 8.774741e-08 0.000000e+00
  1.047837e-07 6.607254e-08 0.000000e+00
  8.762985e-08 7.067332e-08 0.000000e+00
  9.731514e-08 5.019725e-08 0.000000e+00
  8.414596e-08 5.624992e-08 0.000000e+00
  8.985398e-08 3.853606e-08 0.000000e+00
  7.958438e-08 4.456694e-08 0.000000e+00
  8.319128e-08 2.964733e-08 0.000000e+00
  7.496143e-08 3.506616e-08 0.000000e+00
  7.757767e-08 2.259894e-08 0.000000e+00
  7.076659e-08 2.717677e-08 0.000000e+00
  7.305788e-08 1.677715e-08 0.000000e+00