# vtk DataFile Version 2.0
vtk output
ASCII
DATASET UNSTRUCTURED_GRID
POINTS 302 float 
0.0 0.0 0.0
0.06 0.0 0.0
0.06 0.01 0.0
0.0 0.01 0.0
0.000399999999999 0.0 0.0
0.000799999999998 0.0 0.0
0.0012 0.0 0.0
0.0016 0.0 0.0
0.00199999999999 0.0 0.0
0.00239999999999 0.0 0.0
0.00279999999999 0.0 0.0
0.00319999999999 0.0 0.0
0.00359999999999 0.0 0.0
0.00399999999999 0.0 0.0
0.00439999999999 0.0 0.0
0.00479999999999 0.0 0.0
0.00519999999998 0.0 0.0
0.00559999999998 0.0 0.0
0.00599999999998 0.0 0.0
0.00639999999998 0.0 0.0
0.00679999999998 0.0 0.0
0.00719999999998 0.0 0.0
0.00759999999998 0.0 0.0
0.00799999999998 0.0 0.0
0.00839999999998 0.0 0.0
0.00879999999997 0.0 0.0
0.00919999999997 0.0 0.0
0.00959999999997 0.0 0.0
0.00999999999997 0.0 0.0
0.0104 0.0 0.0
0.0108 0.0 0.0
0.0112 0.0 0.0
0.0116 0.0 0.0
0.012 0.0 0.0
0.0124 0.0 0.0
0.0128 0.0 0.0
0.0132 0.0 0.0
0.0136 0.0 0.0
0.014 0.0 0.0
0.0144 0.0 0.0
0.0148 0.0 0.0
0.0152 0.0 0.0
0.0156 0.0 0.0
0.016 0.0 0.0
0.0164 0.0 0.0
0.0168 0.0 0.0
0.0172 0.0 0.0
0.0176 0.0 0.0
0.018 0.0 0.0
0.0184 0.0 0.0
0.0188 0.0 0.0
0.0191999999999 0.0 0.0
0.0195999999999 0.0 0.0
0.0199999999999 0.0 0.0
0.0203999999999 0.0 0.0
0.0207999999999 0.0 0.0
0.0211999999999 0.0 0.0
0.0215999999999 0.0 0.0
0.0219999999999 0.0 0.0
0.0223999999999 0.0 0.0
0.0227999999999 0.0 0.0
0.0231999999999 0.0 0.0
0.0235999999999 0.0 0.0
0.0239999999999 0.0 0.0
0.0243999999999 0.0 0.0
0.0247999999999 0.0 0.0
0.0251999999999 0.0 0.0
0.0255999999999 0.0 0.0
0.0259999999999 0.0 0.0
0.0263999999999 0.0 0.0
0.0267999999999 0.0 0.0
0.0271999999999 0.0 0.0
0.0275999999999 0.0 0.0
0.0279999999999 0.0 0.0
0.0283999999999 0.0 0.0
0.0287999999999 0.0 0.0
0.0291999999999 0.0 0.0
0.0295999999999 0.0 0.0
0.0299999999999 0.0 0.0
0.0303999999999 0.0 0.0
0.0307999999999 0.0 0.0
0.0311999999999 0.0 0.0
0.0315999999999 0.0 0.0
0.0319999999999 0.0 0.0
0.0323999999999 0.0 0.0
0.0327999999999 0.0 0.0
0.0331999999999 0.0 0.0
0.0335999999999 0.0 0.0
0.0339999999999 0.0 0.0
0.0343999999999 0.0 0.0
0.0347999999999 0.0 0.0
0.0351999999999 0.0 0.0
0.0355999999999 0.0 0.0
0.0359999999999 0.0 0.0
0.0363999999999 0.0 0.0
0.0367999999999 0.0 0.0
0.0371999999999 0.0 0.0
0.0375999999999 0.0 0.0
0.0379999999999 0.0 0.0
0.0383999999999 0.0 0.0
0.0387999999999 0.0 0.0
0.0391999999999 0.0 0.0
0.0395999999999 0.0 0.0
0.0399999999999 0.0 0.0
0.0403999999999 0.0 0.0
0.0408 0.0 0.0
0.0412 0.0 0.0
0.0416 0.0 0.0
0.042 0.0 0.0
0.0424 0.0 0.0
0.0428 0.0 0.0
0.0432 0.0 0.0
0.0436 0.0 0.0
0.044 0.0 0.0
0.0444 0.0 0.0
0.0448 0.0 0.0
0.0452 0.0 0.0
0.0456 0.0 0.0
0.046 0.0 0.0
0.0464 0.0 0.0
0.0468 0.0 0.0
0.0472 0.0 0.0
0.0476 0.0 0.0
0.048 0.0 0.0
0.0484 0.0 0.0
0.0488 0.0 0.0
0.0492 0.0 0.0
0.0496 0.0 0.0
0.05 0.0 0.0
0.0504 0.0 0.0
0.0508 0.0 0.0
0.0512 0.0 0.0
0.0516 0.0 0.0
0.052 0.0 0.0
0.0524 0.0 0.0
0.0528 0.0 0.0
0.0532 0.0 0.0
0.0536 0.0 0.0
0.054 0.0 0.0
0.0544 0.0 0.0
0.0548 0.0 0.0
0.0552 0.0 0.0
0.0556 0.0 0.0
0.056 0.0 0.0
0.0564 0.0 0.0
0.0568 0.0 0.0
0.0572 0.0 0.0
0.0576 0.0 0.0
0.058 0.0 0.0
0.0584 0.0 0.0
0.0588 0.0 0.0
0.0592 0.0 0.0
0.0596 0.0 0.0
0.0596 0.01 0.0
0.0592 0.01 0.0
0.0588 0.01 0.0
0.0584 0.01 0.0
0.058 0.01 0.0
0.0576 0.01 0.0
0.0572 0.01 0.0
0.0568 0.01 0.0
0.0564 0.01 0.0
0.056 0.01 0.0
0.0556 0.01 0.0
0.0552 0.01 0.0
0.0548 0.01 0.0
0.0544 0.01 0.0
0.054 0.01 0.0
0.0536 0.01 0.0
0.0532 0.01 0.0
0.0528 0.01 0.0
0.0524 0.01 0.0
0.0520000000001 0.01 0.0
0.0516000000001 0.01 0.0
0.0512000000001 0.01 0.0
0.0508000000001 0.01 0.0
0.0504000000001 0.01 0.0
0.0500000000001 0.01 0.0
0.0496000000001 0.01 0.0
0.0492000000001 0.01 0.0
0.0488000000001 0.01 0.0
0.0484000000001 0.01 0.0
0.0480000000001 0.01 0.0
0.0476000000001 0.01 0.0
0.0472000000001 0.01 0.0
0.0468000000001 0.01 0.0
0.0464000000001 0.01 0.0
0.0460000000001 0.01 0.0
0.0456000000001 0.01 0.0
0.0452000000001 0.01 0.0
0.0448000000001 0.01 0.0
0.0444000000001 0.01 0.0
0.0440000000001 0.01 0.0
0.0436000000001 0.01 0.0
0.0432000000001 0.01 0.0
0.0428000000001 0.01 0.0
0.0424000000001 0.01 0.0
0.0420000000001 0.01 0.0
0.0416000000001 0.01 0.0
0.0412000000001 0.01 0.0
0.0408000000001 0.01 0.0
0.0404000000001 0.01 0.0
0.0400000000001 0.01 0.0
0.0396000000001 0.01 0.0
0.0392000000001 0.01 0.0
0.0388000000001 0.01 0.0
0.0384000000001 0.01 0.0
0.0380000000001 0.01 0.0
0.0376000000001 0.01 0.0
0.0372000000001 0.01 0.0
0.0368000000001 0.01 0.0
0.0364000000001 0.01 0.0
0.0360000000001 0.01 0.0
0.0356000000001 0.01 0.0
0.0352000000001 0.01 0.0
0.0348000000001 0.01 0.0
0.0344000000001 0.01 0.0
0.0340000000001 0.01 0.0
0.0336000000001 0.01 0.0
0.0332000000001 0.01 0.0
0.0328000000001 0.01 0.0
0.0324000000001 0.01 0.0
0.0320000000001 0.01 0.0
0.0316000000001 0.01 0.0
0.0312000000001 0.01 0.0
0.0308000000001 0.01 0.0
0.0304000000001 0.01 0.0
0.0300000000001 0.01 0.0
0.0296000000001 0.01 0.0
0.0292000000001 0.01 0.0
0.0288000000001 0.01 0.0
0.0284000000001 0.01 0.0
0.0280000000001 0.01 0.0
0.0276000000001 0.01 0.0
0.0272000000001 0.01 0.0
0.0268000000001 0.01 0.0
0.0264000000001 0.01 0.0
0.0260000000001 0.01 0.0
0.0256000000001 0.01 0.0
0.0252000000001 0.01 0.0
0.0248000000001 0.01 0.0
0.0244000000001 0.01 0.0
0.0240000000001 0.01 0.0
0.0236000000001 0.01 0.0
0.0232000000001 0.01 0.0
0.0228000000001 0.01 0.0
0.0224000000001 0.01 0.0
0.0220000000001 0.01 0.0
0.0216000000001 0.01 0.0
0.0212000000001 0.01 0.0
0.0208000000001 0.01 0.0
0.0204000000001 0.01 0.0
0.0200000000001 0.01 0.0
0.0196000000001 0.01 0.0
0.0192000000001 0.01 0.0
0.0188000000001 0.01 0.0
0.0184000000001 0.01 0.0
0.0180000000001 0.01 0.0
0.0176000000001 0.01 0.0
0.0172000000001 0.01 0.0
0.0168000000001 0.01 0.0
0.0164000000001 0.01 0.0
0.0160000000001 0.01 0.0
0.0156000000001 0.01 0.0
0.0152000000001 0.01 0.0
0.0148000000001 0.01 0.0
0.0144000000001 0.01 0.0
0.0140000000001 0.01 0.0
0.0136000000001 0.01 0.0
0.0132000000001 0.01 0.0
0.0128000000001 0.01 0.0
0.0124000000001 0.01 0.0
0.0120000000001 0.01 0.0
0.0116000000001 0.01 0.0
0.0112000000001 0.01 0.0
0.0108 0.01 0.0
0.0104 0.01 0.0
0.01 0.01 0.0
0.00960000000004 0.01 0.0
0.00920000000004 0.01 0.0
0.00880000000004 0.01 0.0
0.00840000000004 0.01 0.0
0.00800000000004 0.01 0.0
0.00760000000003 0.01 0.0
0.00720000000003 0.01 0.0
0.00680000000003 0.01 0.0
0.00640000000003 0.01 0.0
0.00600000000003 0.01 0.0
0.00560000000003 0.01 0.0
0.00520000000002 0.01 0.0
0.00480000000002 0.01 0.0
0.00440000000002 0.01 0.0
0.00400000000002 0.01 0.0
0.00360000000002 0.01 0.0
0.00320000000001 0.01 0.0
0.00280000000001 0.01 0.0
0.00240000000001 0.01 0.0
0.00200000000001 0.01 0.0
0.00160000000001 0.01 0.0
0.00120000000001 0.01 0.0
0.000800000000004 0.01 0.0
0.000400000000002 0.01 0.0
CELLS 150 750
3 0 4 301
3 4 5 300
3 5 6 299
3 6 7 298
3 7 8 297
3 8 9 296
3 9 10 295
3 10 11 294
3 11 12 293
3 12 13 292
3 13 14 291
3 14 15 290
3 15 16 289
3 16 17 288
3 17 18 287
3 18 19 286
3 19 20 285
3 20 21 284
3 21 22 283
3 22 23 282
3 23 24 281
3 24 25 280
3 25 26 279
3 26 27 278
3 27 28 277
3 28 29 276
3 29 30 275
3 30 31 274
3 31 32 273
3 32 33 272
3 33 34 271
3 34 35 270
3 35 36 269
3 36 37 268
3 37 38 267
3 38 39 266
3 39 40 265
3 40 41 264
3 41 42 263
3 42 43 262
3 43 44 261
3 44 45 260
3 45 46 259
3 46 47 258
3 47 48 257
3 48 49 256
3 49 50 255
3 50 51 254
3 51 52 253
3 52 53 252
3 53 54 251
3 54 55 250
3 55 56 249
3 56 57 248
3 57 58 247
3 58 59 246
3 59 60 245
3 60 61 244
3 61 62 243
3 62 63 242
3 63 64 241
3 64 65 240
3 65 66 239
3 66 67 238
3 67 68 237
3 68 69 236
3 69 70 235
3 70 71 234
3 71 72 233
3 72 73 232
3 73 74 231
3 74 75 230
3 75 76 229
3 76 77 228
3 77 78 227
3 78 79 226
3 79 80 225
3 80 81 224
3 81 82 223
3 82 83 222
3 83 84 221
3 84 85 220
3 85 86 219
3 86 87 218
3 87 88 217
3 88 89 216
3 89 90 215
3 90 91 214
3 91 92 213
3 92 93 212
3 93 94 211
3 94 95 210
3 95 96 209
3 96 97 208
3 97 98 207
3 98 99 206
3 99 100 205
3 100 101 204
3 101 102 203
3 102 103 202
3 103 104 201
3 104 105 200
3 105 106 199
3 106 107 198
3 107 108 197
3 108 109 196
3 109 110 195
3 110 111 194
3 111 112 193
3 112 113 192
3 113 114 191
3 114 115 190
3 115 116 189
3 116 117 188
3 117 118 187
3 118 119 186
3 119 120 185
3 120 121 184
3 121 122 183
3 122 123 182
3 123 124 181
3 124 125 180
3 125 126 179
3 126 127 178
3 127 128 177
3 128 129 176
3 129 130 175
3 130 131 174
3 131 132 173
3 132 133 172
3 133 134 171
3 134 135 170
3 135 136 169
3 136 137 168
3 137 138 167
3 138 139 166
3 139 140 165
3 140 141 164
3 141 142 163
3 142 143 162
3 143 144 161
3 144 145 160
3 145 146 159
3 146 147 158
3 147 148 157
3 148 149 156
3 149 150 155
3 150 151 154
3 151 152 153
3 152 1 2
CELL_TYPES 150
4
4
4
4
4
4
4
4
4
4
4
4
4
4
4
4
4
4
4
4
4
4
4
4
4
4
4
4
4
4
4
4
4
4
4
4
4
4
4
4
4
4
4
4
4
4
4
4
4
4
4
4
4
4
4
4
4
4
4
4
4
4
4
4
4
4
4
4
4
4
4
4
4
4
4
4
4
4
4
4
4
4
4
4
4
4
4
4
4
4
4
4
4
4
4
4
4
4
4
4
4
4
4
4
4
4
4
4
4
4
4
4
4
4
4
4
4
4
4
4
4
4
4
4
4
4
4
4
4
4
4
4
4
4
4
4
4
4
4
4
4
4
4
4
4
4
4
4
4
4
CELL_DATA  150
SCALARS material_values float
 
LOOKUP_TABLE default
 
0
0
0
0
0
0
0
0
0
0
0
0
0
0
0
0
0
0
0
0
0
0
0
0
0
0
0
0
0
0
0
0
0
0
0
0
0
0
0
0
0
0
0
0
0
0
0
0
0
0
0
0
0
0
0
0
0
0
0
0
0
0
0
0
0
0
0
0
0
0
0
0
0
0
0
0
0
0
0
0
0
0
0
0
0
0
0
0
0
0
0
0
0
0
0
0
0
0
0
0
0
0
0
0
0
0
0
0
0
0
0
0
0
0
0
0
0
0
0
0
0
0
0
0
0
0
0
0
0
0
0
0
0
0
0
0
0
0
0
0
0
0
0
0
0
0
0
0
0
0
