# vtk DataFile Version 2.0
obtained via hydraulicmodule
ASCII
DATASET UNSTRUCTURED_GRID
POINTS 63 double
 1.80476194e+00  9.27788233e-01  0.00000000e+00
 1.83540541e+00  9.86361303e-01  0.00000000e+00
 1.75451451e+00  9.69400266e-01  0.00000000e+00
 1.77906306e+00  8.72460239e-01  0.00000000e+00
 1.85186487e+00  8.87725173e-01  0.00000000e+00
 1.88230697e+00  9.40612915e-01  0.00000000e+00
 1.92567859e+00  8.96926044e-01  0.00000000e+00
 1.91742065e+00  9.96584493e-01  0.00000000e+00
 1.72907468e+00  9.08367653e-01  0.00000000e+00
 1.67530053e+00  9.45817242e-01  0.00000000e+00
 1.70777048e+00  8.51235518e-01  0.00000000e+00
 1.07193005e+00  1.93894482e-01  0.00000000e+00
 1.11227483e+00  1.48135131e-01  0.00000000e+00
 1.12753976e+00  2.20936938e-01  0.00000000e+00
 1.03059973e+00  2.45485487e-01  0.00000000e+00
 1.01363870e+00  1.64594590e-01  0.00000000e+00
 1.05934013e+00  1.17469105e-01  0.00000000e+00
 1.10307396e+00  7.43214109e-02  0.00000000e+00
 1.00341551e+00  8.25793455e-02  0.00000000e+00
 1.09133503e+00  2.70059762e-01  0.00000000e+00
 1.14876448e+00  2.92229522e-01  0.00000000e+00
 1.05418276e+00  3.24699469e-01  0.00000000e+00
 1.65503129e+00  8.82870768e-01  0.00000000e+00
 1.63847412e+00  8.24195994e-01  0.00000000e+00
 1.59830458e+00  9.15773327e-01  0.00000000e+00
 1.58330992e+00  8.51364440e-01  0.00000000e+00
 1.57164735e+00  7.91526376e-01  0.00000000e+00
 1.52405261e+00  8.79473751e-01  0.00000000e+00
 1.51442922e+00  8.14046008e-01  0.00000000e+00
 1.45305184e+00  8.37166478e-01  0.00000000e+00
 1.50774666e+00  7.53449830e-01  0.00000000e+00
 1.11677718e+00  3.44205683e-01  0.00000000e+00
 1.17580401e+00  3.61525882e-01  0.00000000e+00
 1.08422667e+00  4.01695425e-01  0.00000000e+00
 1.44886451e+00  7.71167411e-01  0.00000000e+00
 1.38578729e+00  7.89140509e-01  0.00000000e+00
 1.44720856e+00  7.10226458e-01  0.00000000e+00
 1.38706445e+00  7.23021059e-01  0.00000000e+00
 1.32271843e+00  7.35723911e-01  0.00000000e+00
 1.39044659e+00  6.62151520e-01  0.00000000e+00
 1.14822432e+00  4.15971234e-01  0.00000000e+00
 1.20847362e+00  4.28352654e-01  0.00000000e+00
 1.12052625e+00  4.75947393e-01  0.00000000e+00
 1.18548524e+00  4.84890430e-01  0.00000000e+00
 1.24655017e+00  4.92253342e-01  0.00000000e+00
 1.16283352e+00  5.46948158e-01  0.00000000e+00
 1.22830932e+00  5.50496525e-01  0.00000000e+00
 1.28977354e+00  5.52791441e-01  0.00000000e+00
 1.21085949e+00  6.14212713e-01  0.00000000e+00
 1.27640471e+00  6.12342035e-01  0.00000000e+00
 1.33784848e+00  6.09553414e-01  0.00000000e+00
 1.26427609e+00  6.77281572e-01  0.00000000e+00
 1.32979312e+00  6.70012252e-01  0.00000000e+00
 1.95423437e+00  9.39020575e-01  0.00000000e+00
 1.06097160e+00  4.57283103e-02  0.00000000e+00
 1.00000000e+00  0.00000000e+00  0.00000000e+00
 1.03333333e+00  0.00000000e+00  0.00000000e+00
 1.06666667e+00  0.00000000e+00  0.00000000e+00
 1.10000000e+00  0.00000000e+00  0.00000000e+00
 2.00000000e+00  9.00000000e-01  0.00000000e+00
 2.00000000e+00  9.33333333e-01  0.00000000e+00
 2.00000000e+00  9.66666667e-01  0.00000000e+00
 2.00000000e+00  1.00000000e+00  0.00000000e+00
CELLS 86 338
3 0 1 2
3 0 3 4
3 5 4 6
3 5 7 1
3 8 2 9
3 8 10 3
3 11 12 13
3 11 14 15
3 16 17 12
3 16 15 18
3 19 13 20
3 19 21 14
3 22 23 10
3 22 9 24
3 25 26 23
3 25 24 27
3 28 27 29
3 28 30 26
3 31 20 32
3 31 33 21
3 34 29 35
3 34 36 30
3 37 35 38
3 37 39 36
3 40 32 41
3 40 42 33
3 43 41 44
3 43 45 42
3 46 44 47
3 46 48 45
3 49 47 50
3 49 51 48
3 52 38 51
3 52 50 39
3 16 12 11
3 15 16 11
3 11 13 19
3 11 19 14
3 19 20 31
3 19 31 21
3 31 32 40
3 31 40 33
3 40 41 43
3 40 43 42
3 43 44 46
3 43 46 45
3 49 48 46
3 47 49 46
3 37 38 52
3 37 52 39
3 52 51 49
3 50 52 49
3 34 35 37
3 34 37 36
3 28 29 34
3 28 34 30
3 25 27 28
3 25 28 26
3 22 24 25
3 22 25 23
3 0 2 8
3 0 8 3
3 8 9 22
3 8 22 10
3 5 1 0
3 4 5 0
3 53 6 59
3 58 17 54
3 53 7 5
3 6 53 5
3 16 18 54
3 16 54 17
3 57 58 54
3 53 59 60
3 56 57 54
3 53 60 61
3 61 62 7
3 7 53 61
3 18 55 56
3 56 54 18
2 55 56
2 56 57
2 57 58
2 59 60
2 60 61
2 61 62
CELL_TYPES 86
5
5
5
5
5
5
5
5
5
5
5
5
5
5
5
5
5
5
5
5
5
5
5
5
5
5
5
5
5
5
5
5
5
5
5
5
5
5
5
5
5
5
5
5
5
5
5
5
5
5
5
5
5
5
5
5
5
5
5
5
5
5
5
5
5
5
5
5
5
5
5
5
5
5
5
5
5
5
5
5
3
3
3
3
3
3
POINT_DATA 63
VECTORS vectors float
 5.255966e-03 1.091822e-03 0.000000e+00
  5.116365e-03 7.774227e-04 0.000000e+00
  5.028948e-03 1.205825e-03 0.000000e+00
  5.395558e-03 1.419439e-03 0.000000e+00
  5.489059e-03 9.681446e-04 0.000000e+00
  5.333091e-03 6.561689e-04 0.000000e+00
  5.557668e-03 5.439102e-04 0.000000e+00
  5.198179e-03 3.210393e-04 0.000000e+00
  5.146699e-03 1.524107e-03 0.000000e+00
  4.907044e-03 1.619274e-03 0.000000e+00
  5.264267e-03 1.860421e-03 0.000000e+00
  1.101782e-03 5.267508e-03 0.000000e+00
  9.163024e-04 5.510501e-03 0.000000e+00
  1.363739e-03 5.422821e-03 0.000000e+00
  1.272090e-03 5.025555e-03 0.000000e+00
  8.507823e-04 5.120132e-03 0.000000e+00
  6.693982e-04 5.340307e-03 0.000000e+00
  4.962162e-04 5.556706e-03 0.000000e+00
  3.787117e-04 5.188269e-03 0.000000e+00
  1.531327e-03 5.158174e-03 0.000000e+00
  1.805698e-03 5.295978e-03 0.000000e+00
  1.683411e-03 4.897186e-03 0.000000e+00
  5.002735e-03 1.945452e-03 0.000000e+00
  5.096889e-03 2.288676e-03 0.000000e+00
  4.751123e-03 2.021950e-03 0.000000e+00
  4.824417e-03 2.353541e-03 0.000000e+00
  4.894700e-03 2.701311e-03 0.000000e+00
  4.562672e-03 2.410982e-03 0.000000e+00
  4.613106e-03 2.745569e-03 0.000000e+00
  4.343040e-03 2.783574e-03 0.000000e+00
  4.659078e-03 3.095492e-03 0.000000e+00
  1.951429e-03 5.012614e-03 0.000000e+00
  2.234509e-03 5.132078e-03 0.000000e+00
  2.082985e-03 4.735044e-03 0.000000e+00
  4.370279e-03 3.118824e-03 0.000000e+00
  4.093709e-03 3.137092e-03 0.000000e+00
  4.391631e-03 3.468359e-03 0.000000e+00
  4.097887e-03 3.470638e-03 0.000000e+00
  3.816511e-03 3.469256e-03 0.000000e+00
  4.095260e-03 3.817699e-03 0.000000e+00
  2.357976e-03 4.832748e-03 0.000000e+00
  2.647904e-03 4.933190e-03 0.000000e+00
  2.468313e-03 4.540610e-03 0.000000e+00
  2.748377e-03 4.619893e-03 0.000000e+00
  3.043185e-03 4.700620e-03 0.000000e+00
  2.836777e-03 4.315167e-03 0.000000e+00
  3.119999e-03 4.375463e-03 0.000000e+00
  3.417636e-03 4.435873e-03 0.000000e+00
  3.185868e-03 4.060075e-03 0.000000e+00
  3.470622e-03 4.101154e-03 0.000000e+00
  3.768735e-03 4.141143e-03 0.000000e+00
  3.514233e-03 3.777454e-03 0.000000e+00
  3.796942e-03 3.799211e-03 0.000000e+00
  5.405638e-03 3.070250e-04 0.000000e+00
  3.078701e-04 5.390731e-03 0.000000e+00
  3.332595e-10 4.990412e-03 0.000000e+00
  1.500934e-04 5.185967e-03 0.000000e+00
  2.771063e-10 5.319790e-03 0.000000e+00
  1.850685e-04 5.529472e-03 0.000000e+00
  5.581541e-03 2.254618e-04 0.000000e+00
  5.423698e-03 -1.111683e-05 0.000000e+00
  5.223579e-03 1.061149e-04 0.000000e+00
  5.108542e-03 -7.110261e-05 0.000000e+00
 SCALARS charge double
LOOKUP_TABLE default
 3.0562994899e+01
  2.8421029939e+01
  3.2631374289e+01
  3.2631361657e+01
  2.8420871098e+01
  2.6339056946e+01
  2.4211429312e+01
  2.4214346751e+01
  3.4762053589e+01
  3.6841961777e+01
  3.6841960275e+01
  8.9510706352e+01
  9.1579125530e+01
  8.7368626632e+01
  8.7368612536e+01
  9.1578973565e+01
  9.3673188713e+01
  9.5788547705e+01
  9.5785639272e+01
  8.5287047630e+01
  8.3158034703e+01
  8.3158032692e+01
  3.8970834178e+01
  4.1052519975e+01
  4.1052519963e+01
  4.3181117033e+01
  4.5263071907e+01
  4.5263071997e+01
  4.7391627780e+01
  4.9473622817e+01
  4.9473622581e+01
  8.1074207253e+01
  7.8947477233e+01
  7.8947477021e+01
  5.1602172287e+01
  5.3684172514e+01
  5.3684172108e+01
  5.5812727914e+01
  5.7894671738e+01
  5.7894673556e+01
  7.6863259078e+01
  7.4736925791e+01
  7.4736925593e+01
  7.2652639728e+01
  7.0526374830e+01
  7.0526374840e+01
  6.8442077426e+01
  6.6315825387e+01
  6.6315824829e+01
  6.4231517130e+01
  6.2105335517e+01
  6.2105340453e+01
  6.0007388667e+01
  2.2479686431e+01
  9.7522358132e+01
  1.0000000000e+02
  1.0000000000e+02
  1.0000000000e+02
  1.0000000000e+02
  2.0000000000e+01
  2.0000000000e+01
  2.0000000000e+01
  2.0000000000e+01
 