# vtk DataFile Version 2.0
obtained with chemicaltransportmodule
ASCII 
DATASET UNSTRUCTURED_GRID 
POINTS  3795 double
 9.95000000e-01  9.95000000e-01  0.00000000e+00
 1.00000000e+00  9.95000000e-01  0.00000000e+00
 1.00000000e+00  1.00000000e+00  0.00000000e+00
 9.95000000e-01  1.00000000e+00  0.00000000e+00
 1.00000000e+00  1.00500000e+00  0.00000000e+00
 9.95000000e-01  1.00500000e+00  0.00000000e+00
 1.00500000e+00  9.95000000e-01  0.00000000e+00
 1.00500000e+00  1.00000000e+00  0.00000000e+00
 1.00500000e+00  1.00500000e+00  0.00000000e+00
 5.23684211e-02  3.01515152e-02  0.00000000e+00
 5.23684211e-02  6.03030303e-02  0.00000000e+00
 5.23684211e-02  9.04545455e-02  0.00000000e+00
 5.23684211e-02  1.20606061e-01  0.00000000e+00
 5.23684211e-02  1.50757576e-01  0.00000000e+00
 5.23684211e-02  1.80909091e-01  0.00000000e+00
 5.23684211e-02  2.11060606e-01  0.00000000e+00
 5.23684211e-02  2.41212121e-01  0.00000000e+00
 5.23684211e-02  2.71363636e-01  0.00000000e+00
 5.23684211e-02  3.01515152e-01  0.00000000e+00
 5.23684211e-02  3.31666667e-01  0.00000000e+00
 5.23684211e-02  3.61818182e-01  0.00000000e+00
 5.23684211e-02  3.91969697e-01  0.00000000e+00
 5.23684211e-02  4.22121212e-01  0.00000000e+00
 5.23684211e-02  4.52272727e-01  0.00000000e+00
 5.23684211e-02  4.82424242e-01  0.00000000e+00
 5.23684211e-02  5.12575758e-01  0.00000000e+00
 5.23684211e-02  5.42727273e-01  0.00000000e+00
 5.23684211e-02  5.72878788e-01  0.00000000e+00
 5.23684211e-02  6.03030303e-01  0.00000000e+00
 5.23684211e-02  6.33181818e-01  0.00000000e+00
 5.23684211e-02  6.63333333e-01  0.00000000e+00
 5.23684211e-02  6.93484848e-01  0.00000000e+00
 5.23684211e-02  7.23636364e-01  0.00000000e+00
 5.23684211e-02  7.53787879e-01  0.00000000e+00
 5.23684211e-02  7.83939394e-01  0.00000000e+00
 5.23684211e-02  8.14090909e-01  0.00000000e+00
 5.23684211e-02  8.44242424e-01  0.00000000e+00
 5.23684211e-02  8.74393939e-01  0.00000000e+00
 5.23684211e-02  9.04545455e-01  0.00000000e+00
 5.23684211e-02  9.34696970e-01  0.00000000e+00
 5.23684211e-02  9.64848485e-01  0.00000000e+00
 5.23684211e-02  9.95000000e-01  0.00000000e+00
 1.04736842e-01  3.01515152e-02  0.00000000e+00
 1.04736842e-01  6.03030303e-02  0.00000000e+00
 1.04736842e-01  9.04545455e-02  0.00000000e+00
 1.04736842e-01  1.20606061e-01  0.00000000e+00
 1.04736842e-01  1.50757576e-01  0.00000000e+00
 1.04736842e-01  1.80909091e-01  0.00000000e+00
 1.04736842e-01  2.11060606e-01  0.00000000e+00
 1.04736842e-01  2.41212121e-01  0.00000000e+00
 1.04736842e-01  2.71363636e-01  0.00000000e+00
 1.04736842e-01  3.01515152e-01  0.00000000e+00
 1.04736842e-01  3.31666667e-01  0.00000000e+00
 1.04736842e-01  3.61818182e-01  0.00000000e+00
 1.04736842e-01  3.91969697e-01  0.00000000e+00
 1.04736842e-01  4.22121212e-01  0.00000000e+00
 1.04736842e-01  4.52272727e-01  0.00000000e+00
 1.04736842e-01  4.82424242e-01  0.00000000e+00
 1.04736842e-01  5.12575758e-01  0.00000000e+00
 1.04736842e-01  5.42727273e-01  0.00000000e+00
 1.04736842e-01  5.72878788e-01  0.00000000e+00
 1.04736842e-01  6.03030303e-01  0.00000000e+00
 1.04736842e-01  6.33181818e-01  0.00000000e+00
 1.04736842e-01  6.63333333e-01  0.00000000e+00
 1.04736842e-01  6.93484848e-01  0.00000000e+00
 1.04736842e-01  7.23636364e-01  0.00000000e+00
 1.04736842e-01  7.53787879e-01  0.00000000e+00
 1.04736842e-01  7.83939394e-01  0.00000000e+00
 1.04736842e-01  8.14090909e-01  0.00000000e+00
 1.04736842e-01  8.44242424e-01  0.00000000e+00
 1.04736842e-01  8.74393939e-01  0.00000000e+00
 1.04736842e-01  9.04545455e-01  0.00000000e+00
 1.04736842e-01  9.34696970e-01  0.00000000e+00
 1.04736842e-01  9.64848485e-01  0.00000000e+00
 1.04736842e-01  9.95000000e-01  0.00000000e+00
 1.57105263e-01  3.01515152e-02  0.00000000e+00
 1.57105263e-01  6.03030303e-02  0.00000000e+00
 1.57105263e-01  9.04545455e-02  0.00000000e+00
 1.57105263e-01  1.20606061e-01  0.00000000e+00
 1.57105263e-01  1.50757576e-01  0.00000000e+00
 1.57105263e-01  1.80909091e-01  0.00000000e+00
 1.57105263e-01  2.11060606e-01  0.00000000e+00
 1.57105263e-01  2.41212121e-01  0.00000000e+00
 1.57105263e-01  2.71363636e-01  0.00000000e+00
 1.57105263e-01  3.01515152e-01  0.00000000e+00
 1.57105263e-01  3.31666667e-01  0.00000000e+00
 1.57105263e-01  3.61818182e-01  0.00000000e+00
 1.57105263e-01  3.91969697e-01  0.00000000e+00
 1.57105263e-01  4.22121212e-01  0.00000000e+00
 1.57105263e-01  4.52272727e-01  0.00000000e+00
 1.57105263e-01  4.82424242e-01  0.00000000e+00
 1.57105263e-01  5.12575758e-01  0.00000000e+00
 1.57105263e-01  5.42727273e-01  0.00000000e+00
 1.57105263e-01  5.72878788e-01  0.00000000e+00
 1.57105263e-01  6.03030303e-01  0.00000000e+00
 1.57105263e-01  6.33181818e-01  0.00000000e+00
 1.57105263e-01  6.63333333e-01  0.00000000e+00
 1.57105263e-01  6.93484848e-01  0.00000000e+00
 1.57105263e-01  7.23636364e-01  0.00000000e+00
 1.57105263e-01  7.53787879e-01  0.00000000e+00
 1.57105263e-01  7.83939394e-01  0.00000000e+00
 1.57105263e-01  8.14090909e-01  0.00000000e+00
 1.57105263e-01  8.44242424e-01  0.00000000e+00
 1.57105263e-01  8.74393939e-01  0.00000000e+00
 1.57105263e-01  9.04545455e-01  0.00000000e+00
 1.57105263e-01  9.34696970e-01  0.00000000e+00
 1.57105263e-01  9.64848485e-01  0.00000000e+00
 1.57105263e-01  9.95000000e-01  0.00000000e+00
 2.09473684e-01  3.01515152e-02  0.00000000e+00
 2.09473684e-01  6.03030303e-02  0.00000000e+00
 2.09473684e-01  9.04545455e-02  0.00000000e+00
 2.09473684e-01  1.20606061e-01  0.00000000e+00
 2.09473684e-01  1.50757576e-01  0.00000000e+00
 2.09473684e-01  1.80909091e-01  0.00000000e+00
 2.09473684e-01  2.11060606e-01  0.00000000e+00
 2.09473684e-01  2.41212121e-01  0.00000000e+00
 2.09473684e-01  2.71363636e-01  0.00000000e+00
 2.09473684e-01  3.01515152e-01  0.00000000e+00
 2.09473684e-01  3.31666667e-01  0.00000000e+00
 2.09473684e-01  3.61818182e-01  0.00000000e+00
 2.09473684e-01  3.91969697e-01  0.00000000e+00
 2.09473684e-01  4.22121212e-01  0.00000000e+00
 2.09473684e-01  4.52272727e-01  0.00000000e+00
 2.09473684e-01  4.82424242e-01  0.00000000e+00
 2.09473684e-01  5.12575758e-01  0.00000000e+00
 2.09473684e-01  5.42727273e-01  0.00000000e+00
 2.09473684e-01  5.72878788e-01  0.00000000e+00
 2.09473684e-01  6.03030303e-01  0.00000000e+00
 2.09473684e-01  6.33181818e-01  0.00000000e+00
 2.09473684e-01  6.63333333e-01  0.00000000e+00
 2.09473684e-01  6.93484848e-01  0.00000000e+00
 2.09473684e-01  7.23636364e-01  0.00000000e+00
 2.09473684e-01  7.53787879e-01  0.00000000e+00
 2.09473684e-01  7.83939394e-01  0.00000000e+00
 2.09473684e-01  8.14090909e-01  0.00000000e+00
 2.09473684e-01  8.44242424e-01  0.00000000e+00
 2.09473684e-01  8.74393939e-01  0.00000000e+00
 2.09473684e-01  9.04545455e-01  0.00000000e+00
 2.09473684e-01  9.34696970e-01  0.00000000e+00
 2.09473684e-01  9.64848485e-01  0.00000000e+00
 2.09473684e-01  9.95000000e-01  0.00000000e+00
 2.61842105e-01  3.01515152e-02  0.00000000e+00
 2.61842105e-01  6.03030303e-02  0.00000000e+00
 2.61842105e-01  9.04545455e-02  0.00000000e+00
 2.61842105e-01  1.20606061e-01  0.00000000e+00
 2.61842105e-01  1.50757576e-01  0.00000000e+00
 2.61842105e-01  1.80909091e-01  0.00000000e+00
 2.61842105e-01  2.11060606e-01  0.00000000e+00
 2.61842105e-01  2.41212121e-01  0.00000000e+00
 2.61842105e-01  2.71363636e-01  0.00000000e+00
 2.61842105e-01  3.01515152e-01  0.00000000e+00
 2.61842105e-01  3.31666667e-01  0.00000000e+00
 2.61842105e-01  3.61818182e-01  0.00000000e+00
 2.61842105e-01  3.91969697e-01  0.00000000e+00
 2.61842105e-01  4.22121212e-01  0.00000000e+00
 2.61842105e-01  4.52272727e-01  0.00000000e+00
 2.61842105e-01  4.82424242e-01  0.00000000e+00
 2.61842105e-01  5.12575758e-01  0.00000000e+00
 2.61842105e-01  5.42727273e-01  0.00000000e+00
 2.61842105e-01  5.72878788e-01  0.00000000e+00
 2.61842105e-01  6.03030303e-01  0.00000000e+00
 2.61842105e-01  6.33181818e-01  0.00000000e+00
 2.61842105e-01  6.63333333e-01  0.00000000e+00
 2.61842105e-01  6.93484848e-01  0.00000000e+00
 2.61842105e-01  7.23636364e-01  0.00000000e+00
 2.61842105e-01  7.53787879e-01  0.00000000e+00
 2.61842105e-01  7.83939394e-01  0.00000000e+00
 2.61842105e-01  8.14090909e-01  0.00000000e+00
 2.61842105e-01  8.44242424e-01  0.00000000e+00
 2.61842105e-01  8.74393939e-01  0.00000000e+00
 2.61842105e-01  9.04545455e-01  0.00000000e+00
 2.61842105e-01  9.34696970e-01  0.00000000e+00
 2.61842105e-01  9.64848485e-01  0.00000000e+00
 2.61842105e-01  9.95000000e-01  0.00000000e+00
 3.14210526e-01  3.01515152e-02  0.00000000e+00
 3.14210526e-01  6.03030303e-02  0.00000000e+00
 3.14210526e-01  9.04545455e-02  0.00000000e+00
 3.14210526e-01  1.20606061e-01  0.00000000e+00
 3.14210526e-01  1.50757576e-01  0.00000000e+00
 3.14210526e-01  1.80909091e-01  0.00000000e+00
 3.14210526e-01  2.11060606e-01  0.00000000e+00
 3.14210526e-01  2.41212121e-01  0.00000000e+00
 3.14210526e-01  2.71363636e-01  0.00000000e+00
 3.14210526e-01  3.01515152e-01  0.00000000e+00
 3.14210526e-01  3.31666667e-01  0.00000000e+00
 3.14210526e-01  3.61818182e-01  0.00000000e+00
 3.14210526e-01  3.91969697e-01  0.00000000e+00
 3.14210526e-01  4.22121212e-01  0.00000000e+00
 3.14210526e-01  4.52272727e-01  0.00000000e+00
 3.14210526e-01  4.82424242e-01  0.00000000e+00
 3.14210526e-01  5.12575758e-01  0.00000000e+00
 3.14210526e-01  5.42727273e-01  0.00000000e+00
 3.14210526e-01  5.72878788e-01  0.00000000e+00
 3.14210526e-01  6.03030303e-01  0.00000000e+00
 3.14210526e-01  6.33181818e-01  0.00000000e+00
 3.14210526e-01  6.63333333e-01  0.00000000e+00
 3.14210526e-01  6.93484848e-01  0.00000000e+00
 3.14210526e-01  7.23636364e-01  0.00000000e+00
 3.14210526e-01  7.53787879e-01  0.00000000e+00
 3.14210526e-01  7.83939394e-01  0.00000000e+00
 3.14210526e-01  8.14090909e-01  0.00000000e+00
 3.14210526e-01  8.44242424e-01  0.00000000e+00
 3.14210526e-01  8.74393939e-01  0.00000000e+00
 3.14210526e-01  9.04545455e-01  0.00000000e+00
 3.14210526e-01  9.34696970e-01  0.00000000e+00
[...]
POINT_DATA  3795
SCALARS Na_output double 1
LOOKUP_TABLE default
3.44972300e-03 
3.42718527e-03 
3.49061347e-03 
3.51415886e-03 
3.42718532e-03 
3.44972306e-03 
3.33665875e-03 
3.39798341e-03 
3.33665880e-03 
1.00000009e-10 
1.00000024e-10 
1.00000050e-10 
1.00000102e-10 
1.00000204e-10 
1.00000404e-10 
1.00000791e-10 
1.00001531e-10 
1.00002930e-10 
1.00005538e-10 
1.00010328e-10 
1.00018982e-10 
1.00034335e-10 
1.00061048e-10 
1.00106545e-10 
1.00182267e-10 
1.00305190e-10 
1.00499440e-10 
1.00797667e-10 
1.01241580e-10 
1.01880875e-10 
1.02769668e-10 
1.03959777e-10 
1.05490693e-10 
1.07377059e-10 
1.09595633e-10 
1.12074812e-10 
1.14690292e-10 
1.17269992e-10 
1.19609702e-10 
1.21498304e-10 
1.22748494e-10 
1.23225852e-10 
1.00000022e-10 
1.00000054e-10 
1.00000116e-10 
1.00000237e-10 
1.00000476e-10 
1.00000947e-10 
1.00001868e-10 
1.00003648e-10 
1.00007047e-10 
1.00013453e-10 
1.00025355e-10 
1.00047122e-10 
1.00086252e-10 
1.00155283e-10 
1.00274582e-10 
1.00476174e-10 
1.00808606e-10 
1.01342454e-10 
1.02175532e-10 
1.03436007e-10 
1.05280863e-10 
1.07886590e-10 
1.11429297e-10 
1.16053005e-10 
1.21827982e-10 
1.28705179e-10 
1.36477108e-10 
1.44758048e-10 
1.52995535e-10 
1.60519708e-10 
1.66627804e-10 
1.70690371e-10 
1.72257482e-10 
1.00000038e-10 
1.00000098e-10 
1.00000210e-10 
1.00000432e-10 
1.00000878e-10 
1.00001767e-10 
1.00003524e-10 
1.00006966e-10 
1.00013632e-10 
1.00026387e-10 
1.00050469e-10 
1.00095275e-10 
1.00177297e-10 
1.00324789e-10 
1.00584843e-10 
1.01033551e-10 
1.01789599e-10 
1.03030798e-10 
1.05011443e-10 
1.08075992e-10 
1.12661636e-10 
1.19279909e-10 
1.28467050e-10 
1.40696387e-10 
1.56254761e-10 
1.75098650e-10 
1.96720891e-10 
2.20070066e-10 
2.43564795e-10 
2.65229907e-10 
2.82951410e-10 
2.94809874e-10 
2.99421280e-10 
1.00000063e-10 
1.00000162e-10 
1.00000350e-10 
1.00000728e-10 
1.00001495e-10 
1.00003047e-10 
1.00006159e-10 
1.00012346e-10 
1.00024526e-10 
1.00048236e-10 
1.00093832e-10 
1.00180331e-10 
1.00341976e-10 
1.00639028e-10 
1.01174862e-10 
1.02121666e-10 
1.03756774e-10 
1.06509919e-10 
1.11017798e-10 
1.18175489e-10 
1.29164820e-10 
1.45429877e-10 
1.68564251e-10 
2.00080185e-10 
2.41052855e-10 
2.91675147e-10 
3.50811699e-10 
4.15686726e-10 
4.81853377e-10 
5.43551991e-10 
5.94468514e-10 
6.28776385e-10 
6.42227039e-10 
1.00000099e-10 
1.00000255e-10 
1.00000557e-10 
1.00001173e-10 
1.00002440e-10 
1.00005037e-10 
1.00010324e-10 
1.00021004e-10 
1.00042384e-10 
1.00084762e-10 
1.00167831e-10 
1.00328660e-10 
1.00635758e-10 
1.01213146e-10 
1.02280042e-10 
1.04213472e-10 
1.07641686e-10 
1.13573820e-10 
1.23562842e-10 
1.39881024e-10 
1.65658598e-10 
2.04900293e-10 
2.62264105e-10 
3.42484546e-10 
4.49375782e-10 
5.84474881e-10 
7.45566830e-10 
9.25515098e-10 
1.11190968e-09 
1.28795452e-09 
1.43471110e-09 
1.53436751e-09 
1.57378293e-09 
1.00000150e-10 
1.00000390e-10 
1.00000860e-10 
1.00001831e-10 
1.00003855e-10 
1.00008062e-10 
1.00016756e-10 
1.00034595e-10 
1.00070916e-10 
1.00144211e-10 
1.00290663e-10 
1.00580059e-10 
1.01144819e-10 
1.02231541e-10 
1.04289608e-10 
1.08117667e-10 
1.15094153e-10 
1.27518086e-10 
1.49072131e-10 
1.85379202e-10 
2.44544445e-10 
3.37455955e-10 
4.77487631e-10 
6.79175469e-10 
9.55527538e-10 
1.31396992e-09 
1.75153136e-09 
2.25056161e-09 
2.77675255e-09 
3.28108622e-09 
3.70641377e-09 
3.99779430e-09 
4.11408521e-09 
1.00000222e-10 
1.00000580e-10 
1.00001290e-10 
1.00002776e-10 
1.00005914e-10 
1.00012525e-10 
1.00026384e-10 
1.00055264e-10 
1.00115031e-10 
1.00237774e-10 
1.00487671e-10 
1.00991498e-10 
1.01996110e-10 
1.03974271e-10 
1.07814123e-10 
1.15147020e-10 
1.28891217e-10 
1.54106184e-10 
1.99242610e-10 
2.77797553e-10 
4.10189534e-10 
6.25314482e-10 
9.60761629e-10 
1.46023686e-09 
2.16671831e-09 
3.11068849e-09 
4.29465681e-09 
5.67779344e-09 
7.16663811e-09 
8.61820163e-09 
9.85890615e-09 
1.07174652e-08 
1.10635758e-08 
1.00000319e-10 
1.00000838e-10 
1.00001881e-10 
1.00004091e-10 
1.00008813e-10 
1.00018891e-10 
1.00040309e-10 
1.00085597e-10 
1.00180804e-10 
1.00379642e-10 
1.00791844e-10 
1.01639210e-10 
1.03364555e-10 
1.06839398e-10 
1.13750546e-10 
1.27299176e-10 
1.53420371e-10 
2.02815694e-10 
2.94144545e-10 
4.58641878e-10 
7.46041031e-10 
1.23075281e-09 
2.01567243e-09 
3.22907885e-09 
5.00891921e-09 
7.47011597e-09 
1.06559765e-08 
1.44839038e-08 
1.87055256e-08 
2.29047576e-08 
2.65509343e-08 
2.91037377e-08 
3.01436730e-08 
1.00000446e-10 
1.00001178e-10 
1.00002667e-10 
1.00005857e-10 
1.00012752e-10 
1.00027645e-10 
1.00059708e-10 
1.00128444e-10 
1.00275099e-10 
1.00586298e-10 
1.01242593e-10 
1.02616965e-10 
1.05472029e-10 
1.11348446e-10 
1.23315104e-10 
1.47383775e-10 
1.95098672e-10 
2.88101631e-10 
4.65795683e-10 
7.97387668e-10 
1.39911007e-09 
2.45545360e-09 
4.23877904e-09 
7.11458463e-09 
1.15125294e-08 
1.78421284e-08 
2.63451415e-08 
3.69082701e-08 
4.88985750e-08 
6.11141024e-08 
7.19210171e-08 
7.95921309e-08 
8.27551093e-08 
1.00000606e-10 
1.00001611e-10 
1.00003676e-10 
1.00008144e-10 
1.00017906e-10 
1.00039229e-10 
1.00085683e-10 
1.00186557e-10 
1.00404763e-10 
1.00874719e-10 
1.01881857e-10 
1.04027956e-10 
1.08571249e-10 
1.18116998e-10 
1.37997901e-10 
1.78980971e-10 
2.62450719e-10 
4.30039580e-10 
7.60836987e-10 
1.40057897e-09 
2.60767991e-09 
4.81831285e-09 
8.72278027e-09 
1.53234783e-08 
2.59125101e-08 
4.18831700e-08 
6.43071242e-08 
9.33024587e-08 
1.27386165e-07 
1.63129070e-07 
1.95478868e-07 
2.18822533e-07 
2.28574581e-07 
1.00000801e-10 
1.00002142e-10 
1.00004921e-10 
1.00010992e-10 
1.00024385e-10 
1.00053937e-10 
1.00119027e-10 
1.00262033e-10 
1.00575306e-10 
1.01259282e-10 
1.02746905e-10 
1.05968214e-10 
1.12908254e-10 
1.27771839e-10 
1.59386060e-10 
2.26083174e-10 
3.65444205e-10 
6.53296114e-10 
1.23965809e-09 
2.41410742e-09 
4.71830656e-09 
9.12488473e-09 
1.72880251e-08 
3.18201216e-08 
5.64370279e-08 
9.56643577e-08 
1.53748402e-07 
2.32631888e-07 
3.29427486e-07 
4.34665437e-07 
5.32603778e-07 
6.04744431e-07 
6.35348081e-07 
1.00001030e-10 
1.00002766e-10 
1.00006396e-10 
1.00014392e-10 
1.00032185e-10 
1.00071807e-10 
1.00159937e-10 
1.00355615e-10 
1.00789179e-10 
1.01747517e-10 
1.03859931e-10 
1.08501296e-10 
1.18661257e-10 
1.40804609e-10 
1.88818170e-10 
2.92294105e-10 
5.13681886e-10 
9.83205290e-10 
1.96840333e-09 
4.00867426e-09 
8.16550096e-09 
1.64623521e-08 
3.25946614e-08 
6.29213271e-08 
1.17483571e-07 
2.10194340e-07 
3.56609793e-07 
5.67943289e-07 
8.41837356e-07 
1.15338903e-06 
1.45407774e-06 
1.68110681e-06 
1.77929024e-06 
1.00001286e-10 
1.00003469e-10 
1.00008067e-10 
1.00018271e-10 
1.00041149e-10 
1.00092506e-10 
1.00207730e-10 
1.00465957e-10 
1.01043888e-10 
1.02335318e-10 
1.05215853e-10 
1.11627224e-10 
1.25861784e-10 
1.57372399e-10 
2.26882610e-10 
3.79575785e-10 
7.13304400e-10 
1.43822638e-09 
3.00100201e-09 
6.33837160e-09 
1.33811843e-08 
2.80191551e-08 
5.78474127e-08 
1.17059971e-07 
2.30531332e-07 
4.37719213e-07 
7.91511438e-07 
1.34320986e-06 
2.11024826e-06 
3.03772449e-06 
3.97437312e-06 
4.70742861e-06 
5.03055158e-06 
1.00001561e-10 
1.00004224e-10 
1.00009869e-10 
1.00022477e-10 
1.00050930e-10 
1.00115247e-10 
1.00260620e-10 
1.00589031e-10 
1.01330422e-10 
1.03002725e-10 
1.06771063e-10 
1.15252522e-10 
1.34314872e-10 
1.77085287e-10 
2.72852629e-10 
4.86749557e-10 
9.63025456e-10 
2.01950949e-09 
4.35191928e-09 
9.47036490e-09 
2.06165670e-08 
4.46469537e-08 
9.57703707e-08 
2.02591636e-07 
4.20281488e-07 
8.48342753e-07 
1.64696083e-06 
3.02242897e-06 
5.12670644e-06 
7.88352417e-06 
1.08671366e-05 
1.32951594e-05 
1.44096959e-05 
1.00001838e-10 
1.00004989e-10 
1.00011704e-10 
1.00026781e-10 
1.00060989e-10 
1.00138763e-10 
1.00315640e-10 
1.00717886e-10 
1.01632513e-10 
1.03711725e-10 
1.08436952e-10 
1.19171318e-10 
1.43544385e-10 
1.98849029e-10 
3.24235632e-10 
6.08208488e-10 
1.25046209e-09 
2.70045850e-09 
5.96654530e-09 
1.33011738e-08 
2.97067452e-08 
6.62047458e-08 
1.46807916e-07 
3.22993745e-07 
7.02469480e-07 
1.50212170e-06 
3.13111125e-06 
6.27233365e-06 
1.17713255e-05 
1.99270304e-05 
2.95409078e-05 
3.80533874e-05 
4.19969684e-05 
1.00002100e-10 
1.00005714e-10 
1.00013449e-10 
1.00030886e-10 
1.00070622e-10 
1.00161375e-10 
1.00368780e-10 
1.00842939e-10 
1.01927235e-10 
1.04407413e-10 
1.10081891e-10 
1.23067759e-10 
1.52791917e-10 
2.20841949e-10 
3.76656563e-10 
7.33453744e-10 
1.55046609e-09 
3.42103457e-09 
7.70234050e-09 
1.74954665e-08 
3.98744958e-08 
9.09354365e-08 
2.07158268e-07 
4.70714988e-07 
1.06489539e-06 
2.39196344e-06 
5.31025105e-06 
1.15542556e-05 
2.42521943e-05 
4.72395697e-05 
7.95572468e-05 
1.10003697e-04 
1.26368081e-04 
1.00002327e-10 
1.00006343e-10 
1.00014963e-10 
1.00034458e-10 
1.00079021e-10 
1.00181139e-10 
1.00415356e-10 
1.00952875e-10 
1.02187183e-10 
1.05023246e-10 
1.11543865e-10 
1.26546273e-10 
1.61088732e-10 
2.40684244e-10 
4.24249992e-10 
8.47980065e-10 
1.82704162e-09 
4.09160122e-09 
9.33534303e-09 
2.14919445e-08 
4.97096806e-08 
1.15291991e-07 
2.67908625e-07 
6.23475637e-07 
1.45260206e-06 
3.38640366e-06 
7.89094651e-06 
1.83382361e-05 
4.22566217e-05 
9.54278508e-05 
1.98915666e-04 
3.31468769e-04 
3.94064989e-04 
1.00002498e-10 
1.00006817e-10 
1.00016107e-10 
1.00037156e-10 
1.00085369e-10 
1.00196083e-10 
1.00450588e-10 
1.01036081e-10 
1.02384056e-10 
1.05490024e-10 
1.12653054e-10 
1.29188473e-10 
1.67399702e-10 
2.55803041e-10 
4.60588793e-10 
9.35643617e-10 
2.03939328e-09 
4.60838394e-09 
1.05996352e-08 
2.46036887e-08 
5.74218426e-08 
1.34561278e-07 
3.16514542e-07 
7.47485868e-07 
1.77337618e-06 
4.23036273e-06 
1.01597183e-05 
2.46054872e-05 
6.02677929e-05 
1.49442008e-04 
3.80767936e-04 
9.06134401e-04 
1.48703848e-03 
1.00002596e-10 
1.00007088e-10 
1.00016757e-10 
1.00038685e-10 
1.00088950e-10 
1.00204477e-10 
1.00470286e-10 
1.01082376e-10 
1.02493035e-10 
1.05747016e-10 
1.13260266e-10 
1.30626246e-10 
1.70812157e-10 
2.63923608e-10 
4.79970049e-10 
9.82054061e-10 
2.15094513e-09 
4.87765703e-09 
1.12528355e-08 
2.61972613e-08 
6.13357672e-08 
1.44250327e-07 
3.40731927e-07 
8.08719675e-07 
1.93050352e-06 
4.64103443e-06 
1.12595889e-05 
2.76551686e-05 
6.90836443e-05 
1.77628770e-04 
4.73775434e-04 
1.49819274e-03 
1.23231082e-10 
1.23225844e-10 
1.72276918e-10 
1.72257459e-10 
2.99480174e-10 
2.99421246e-10 
6.42411081e-10 
6.42227030e-10 
1.57432873e-09 
1.57378292e-09 
4.11582908e-09 
4.11408540e-09 
1.10687075e-08 
1.10635757e-08 
3.01607225e-08 
3.01436720e-08 
8.28047511e-08 
8.27551070e-08 
2.28749534e-07 
2.28574584e-07 
6.35851403e-07 
6.35348091e-07 
1.78122383e-06 
1.77929022e-06 
5.03608312e-06 
5.03055154e-06 
1.44339602e-05 
1.44096960e-05 
4.20668867e-05 
4.19969685e-05 
1.26773902e-04 
1.26368081e-04 
3.95146100e-04 
3.94064990e-04 
1.50519218e-03 
1.48703850e-03 
1.22748473e-10 
1.21498282e-10 
1.19609686e-10 
1.17269983e-10 
1.14690286e-10 
1.12074809e-10 
1.09595632e-10 
1.07377059e-10 
1.05490694e-10 
1.03959778e-10 
1.02769668e-10 
1.01880875e-10 
1.01241581e-10 
1.00797667e-10 
1.00499440e-10 
1.00305190e-10 
1.00182267e-10 
1.00106545e-10 
1.00061048e-10 
1.00034335e-10 
1.00018982e-10 
1.00010328e-10 
1.00005538e-10 
1.00002930e-10 
1.00001531e-10 
1.00000791e-10 
1.00000404e-10 
1.00000204e-10 
1.00000102e-10 
1.00000050e-10 
1.00000024e-10 
1.00000009e-10 
1.70690333e-10 
1.66627773e-10 
1.60519683e-10 
1.52995518e-10 
1.44758034e-10 
1.36477100e-10 
1.28705174e-10 
1.21827982e-10 
1.16053006e-10 
1.11429299e-10 
1.07886592e-10 
1.05280865e-10 
1.03436008e-10 
1.02175533e-10 
1.01342454e-10 
1.00808606e-10 
1.00476174e-10 
1.00274582e-10 
1.00155283e-10 
1.00086252e-10 
1.00047122e-10 
1.00025355e-10 
1.00013453e-10 
1.00007047e-10 
1.00003648e-10 
1.00001868e-10 
1.00000947e-10 
1.00000476e-10 
1.00000237e-10 
1.00000116e-10 
1.00000054e-10 
1.00000022e-10 
2.94809851e-10 
2.82951394e-10 
2.65229887e-10 
2.43564770e-10 
2.20070036e-10 
1.96720872e-10 
1.75098637e-10 
1.56254760e-10 
1.40696388e-10 
1.28467054e-10 
1.19279911e-10 
1.12661639e-10 
1.08075993e-10 
1.05011444e-10 
1.03030798e-10 
1.01789600e-10 
1.01033551e-10 
1.00584843e-10 
1.00324789e-10 
1.00177297e-10 
1.00095275e-10 
1.00050469e-10 
1.00026387e-10 
1.00013632e-10 
1.00006966e-10 
1.00003524e-10 
1.00001767e-10 
1.00000878e-10 
1.00000432e-10 
1.00000210e-10 
1.00000098e-10 
1.00000038e-10 
6.28776416e-10 
5.94468556e-10 
5.43551966e-10 
4.81853316e-10 
4.15686652e-10 
3.50811657e-10 
2.91675120e-10 
2.41052854e-10 
2.00080187e-10 
1.68564261e-10 
1.45429883e-10 
1.29164826e-10 
1.18175491e-10 
1.11017800e-10 
1.06509919e-10 
1.03756774e-10 
1.02121666e-10 
1.01174862e-10 
1.00639028e-10 
1.00341975e-10 
1.00180331e-10 
1.00093831e-10 
1.00048236e-10 
1.00024525e-10 
1.00012346e-10 
1.00006159e-10 
1.00003047e-10 
1.00001495e-10 
1.00000728e-10 
1.00000350e-10 
1.00000162e-10 
1.00000063e-10 
1.53436767e-09 
1.43471117e-09 
1.28795436e-09 
1.11190950e-09 
9.25514919e-10 
7.45566749e-10 
5.84474831e-10 
4.49375790e-10 
3.42484552e-10 
2.62264129e-10 
2.04900304e-10 
1.65658611e-10 
1.39881029e-10 
1.23562846e-10 
1.13573821e-10 
1.07641686e-10 
1.04213472e-10 
1.02280042e-10 
1.01213146e-10 
1.00635758e-10 
1.00328659e-10 
1.00167831e-10 
1.00084762e-10 
1.00042384e-10 
1.00021004e-10 
1.00010324e-10 
1.00005037e-10 
1.00002440e-10 
1.00001173e-10 
1.00000557e-10 
1.00000255e-10 
1.00000099e-10 
3.99779442e-09 
3.70641343e-09 
3.28108564e-09 
2.77675211e-09 
2.25056124e-09 
1.75153124e-09 
1.31396984e-09 
9.55527577e-10 
6.79175484e-10 
4.77487685e-10 
3.37455976e-10 
2.44544471e-10 
1.85379210e-10 
1.49072139e-10 
1.27518087e-10 
1.15094155e-10 
1.08117666e-10 
1.04289608e-10 
1.02231540e-10 
1.01144819e-10 
1.00580058e-10 
1.00290662e-10 
1.00144210e-10 
1.00070916e-10 
1.00034595e-10 
1.00016756e-10 
1.00008062e-10 
1.00003855e-10 
1.00001831e-10 
1.00000860e-10 
1.00000390e-10 
1.00000150e-10 
1.07174643e-08 
9.85890500e-09 
8.61820026e-09 
7.16663733e-09 
5.67779279e-09 
4.29465669e-09 
3.11068837e-09 
2.16671844e-09 
1.46023689e-09 
9.60761747e-10 
6.25314521e-10 
4.10189586e-10 
2.77797566e-10 
1.99242626e-10 
1.54106185e-10 
1.28891219e-10 
1.15147019e-10 
1.07814123e-10 
1.03974269e-10 
1.01996109e-10 
1.00991497e-10 
1.00487670e-10 
1.00237773e-10 
1.00115031e-10 
1.00055264e-10 
1.00026384e-10 
1.00012525e-10 
1.00005914e-10 
1.00002776e-10 
1.00001290e-10 
1.00000580e-10 
1.00000222e-10 
2.91037356e-08 
2.65509325e-08 
2.29047554e-08 
1.87055245e-08 
1.44839027e-08 
1.06559765e-08 
7.47011575e-09 
5.00891953e-09 
3.22907890e-09 
2.01567268e-09 
1.23075288e-09 
7.46041135e-10 
4.58641900e-10 
2.94144573e-10 
2.02815695e-10 
1.53420375e-10 
1.27299173e-10 
1.13750545e-10 
1.06839395e-10 
1.03364553e-10 
1.01639208e-10 
1.00791844e-10 
1.00379641e-10 
1.00180803e-10 
1.00085596e-10 
1.00040308e-10 
1.00018891e-10 
1.00008813e-10 
1.00004091e-10 
1.00001881e-10 
1.00000838e-10 
1.00000319e-10 
7.95921302e-08 
7.19210166e-08 
6.11140985e-08 
4.88985739e-08 
3.69082679e-08 
2.63451419e-08 
1.78421280e-08 
1.15125302e-08 
7.11458471e-09 
4.23877960e-09 
2.45545373e-09 
1.39911028e-09 
7.97387707e-10 
4.65795736e-10 
2.88101631e-10 
1.95098677e-10 
1.47383768e-10 
1.23315101e-10 
1.11348441e-10 
1.05472026e-10 
1.02616962e-10 
1.01242591e-10 
1.00586297e-10 
1.00275098e-10 
1.00128444e-10 
1.00059707e-10 
1.00027645e-10 
1.00012752e-10 
1.00005857e-10 
1.00002667e-10 
1.00001178e-10 
1.00000446e-10 
2.18822537e-07 
1.95478867e-07 
1.63129062e-07 
1.27386164e-07 
9.33024543e-08 
6.43071262e-08 
4.18831692e-08 
2.59125121e-08 
1.53234784e-08 
8.72278149e-09 
4.81831311e-09 
2.60768032e-09 
1.40057904e-09 
7.60837083e-10 
4.30039576e-10 
2.62450725e-10 
1.78980958e-10 
1.37997894e-10 
1.18116988e-10 
1.08571243e-10 
1.04027952e-10 
1.01881854e-10 
1.00874717e-10 
1.00404761e-10 
1.00186556e-10 
1.00085683e-10 
1.00039228e-10 
1.00017906e-10 
1.00008144e-10 
1.00003676e-10 
1.00001611e-10 
1.00000606e-10 
6.04744419e-07 
5.32603774e-07 
4.34665415e-07 
3.29427489e-07 
2.32631879e-07 
1.53748409e-07 
9.56643563e-08 
5.64370329e-08 
3.18201220e-08 
1.72880276e-08 
9.12488522e-09 
4.71830734e-09 
2.41410753e-09 
1.23965825e-09 
6.53296098e-10 
3.65444207e-10 
2.26083147e-10 
1.59386044e-10 
1.27771821e-10 
1.12908243e-10 
1.05968205e-10 
1.02746899e-10 
1.01259278e-10 
1.00575304e-10 
1.00262031e-10 
1.00119026e-10 
1.00053936e-10 
1.00024385e-10 
1.00010992e-10 
1.00004921e-10 
1.00002142e-10 
1.00000801e-10 
1.68110677e-06 
1.45407774e-06 
1.15338898e-06 
8.41837378e-07 
5.67943273e-07 
3.56609814e-07 
2.10194338e-07 
1.17483583e-07 
6.29213279e-08 
3.25946665e-08 
1.64623530e-08 
8.16550236e-09 
4.00867443e-09 
1.96840358e-09 
9.83205246e-10 
5.13681877e-10 
2.92294051e-10 
1.88818137e-10 
1.40804575e-10 
1.18661235e-10 
1.08501280e-10 
1.03859921e-10 
1.01747510e-10 
1.00789174e-10 
1.00355612e-10 
1.00159935e-10 
1.00071806e-10 
1.00032185e-10 
1.00014392e-10 
1.00006396e-10 
1.00002766e-10 
1.00001030e-10 
4.70742853e-06 
3.97437317e-06 
3.03772439e-06 
2.11024835e-06 
1.34320983e-06 
7.91511498e-07 
4.37719209e-07 
2.30531357e-07 
1.17059973e-07 
5.78474222e-08 
2.80191566e-08 
1.33811867e-08 
6.33837186e-09 
3.00100240e-09 
1.43822629e-09 
7.13304368e-10 
3.79575689e-10 
2.26882546e-10 
1.57372338e-10 
1.25861743e-10 
1.11627194e-10 
1.05215834e-10 
1.02335305e-10 
1.01043880e-10 
1.00465952e-10 
1.00207727e-10 
1.00092505e-10 
1.00041148e-10 
1.00018270e-10 
1.00008067e-10 
1.00003469e-10 
1.00001286e-10 
1.32951593e-05 
1.08671368e-05 
7.88352394e-06 
5.12670674e-06 
3.02242892e-06 
1.64696098e-06 
8.48342745e-07 
4.20281538e-07 
2.02591638e-07 
9.57703876e-08 
4.46469564e-08 
2.06165711e-08 
9.47036539e-09 
4.35191991e-09 
2.01950936e-09 
9.63025389e-10 
4.86749389e-10 
2.72852508e-10 
1.77085176e-10 
1.34314797e-10 
1.15252468e-10 
1.06771028e-10 
1.03002702e-10 
1.01330408e-10 
1.00589022e-10 
1.00260615e-10 
1.00115244e-10 
1.00050928e-10 
1.00022476e-10 
1.00009868e-10 
1.00004223e-10 
1.00001561e-10 
3.80533869e-05 
2.95409087e-05 
1.99270298e-05 
1.17713264e-05 
6.27233354e-06 
3.13111158e-06 
1.50212169e-06 
7.02469573e-07 
3.22993751e-07 
1.46807945e-07 
6.62047512e-08 
2.97067519e-08 
1.33011748e-08 
5.96654626e-09 
2.70045829e-09 
1.25046190e-09 
6.08208157e-10 
3.24235381e-10 
1.98848813e-10 
1.43544237e-10 
1.19171212e-10 
1.08436884e-10 
1.03711681e-10 
1.01632487e-10 
1.00717870e-10 
1.00315631e-10 
1.00138757e-10 
1.00060986e-10 
1.00026779e-10 
1.00011703e-10 
1.00004988e-10 
1.00001838e-10 
1.10003695e-04 
7.95572499e-05 
4.72395679e-05 
2.42521967e-05 
1.15542554e-05 
5.31025169e-06 
2.39196345e-06 
1.06489555e-06 
4.70715009e-07 
2.07158317e-07 
9.09354474e-08 
3.98745065e-08 
1.74954684e-08 
7.70234168e-09 
3.42103390e-09 
1.55046540e-09 
7.33452938e-10 
3.76655954e-10 
2.20841475e-10 
1.52791594e-10 
1.23067542e-10 
1.10081754e-10 
1.04407328e-10 
1.01927184e-10 
1.00842910e-10 
1.00368763e-10 
1.00161365e-10 
1.00070617e-10 
1.00030883e-10 
1.00013447e-10 
1.00005713e-10 
1.00002100e-10 
3.31468759e-04 
1.98915678e-04 
9.54278466e-05 
4.22566269e-05 
1.83382359e-05 
7.89094762e-06 
3.38640372e-06 
1.45260233e-06 
6.23475684e-07 
2.67908700e-07 
1.15292011e-07 
4.97096960e-08 
2.14919471e-08 
9.33534346e-09 
4.09159905e-09 
1.82703956e-09 
8.47978146e-10 
4.24248593e-10 
2.40683222e-10 
1.61088062e-10 
1.26545840e-10 
1.11543601e-10 
1.05023087e-10 
1.02187089e-10 
1.00952822e-10 
1.00415325e-10 
1.00181122e-10 
1.00079011e-10 
1.00034453e-10 
1.00014960e-10 
1.00006341e-10 
1.00002327e-10 
9.06134359e-04 
3.80767974e-04 
1.49442001e-04 
6.02678015e-05 
2.46054871e-05 
1.01597199e-05 
4.23036288e-06 
1.77337656e-06 
7.47485946e-07 
3.16514643e-07 
1.34561304e-07 
5.74218644e-08 
2.46036901e-08 
1.05996326e-08 
4.60837840e-09 
2.03938848e-09 
9.35639690e-10 
4.60586009e-10 
2.55801137e-10 
1.67398484e-10 
1.29187713e-10 
1.12652598e-10 
1.05489754e-10 
1.02383900e-10 
1.01035993e-10 
1.00450538e-10 
1.00196056e-10 
1.00085354e-10 
1.00037148e-10 
1.00016103e-10 