# vtk DataFile Version 2.0
obtained with chemicaltransportmodule
ASCII 
DATASET UNSTRUCTURED_GRID 
POINTS  3795 double
 9.95000000e-01  9.95000000e-01  0.00000000e+00
 1.00000000e+00  9.95000000e-01  0.00000000e+00
 1.00000000e+00  1.00000000e+00  0.00000000e+00
 9.95000000e-01  1.00000000e+00  0.00000000e+00
 1.00000000e+00  1.00500000e+00  0.00000000e+00
 9.95000000e-01  1.00500000e+00  0.00000000e+00
 1.00500000e+00  9.95000000e-01  0.00000000e+00
 1.00500000e+00  1.00000000e+00  0.00000000e+00
 1.00500000e+00  1.00500000e+00  0.00000000e+00
 5.23684211e-02  3.01515152e-02  0.00000000e+00
 5.23684211e-02  6.03030303e-02  0.00000000e+00
 5.23684211e-02  9.04545455e-02  0.00000000e+00
 5.23684211e-02  1.20606061e-01  0.00000000e+00
 5.23684211e-02  1.50757576e-01  0.00000000e+00
 5.23684211e-02  1.80909091e-01  0.00000000e+00
 5.23684211e-02  2.11060606e-01  0.00000000e+00
 5.23684211e-02  2.41212121e-01  0.00000000e+00
 5.23684211e-02  2.71363636e-01  0.00000000e+00
 5.23684211e-02  3.01515152e-01  0.00000000e+00
 5.23684211e-02  3.31666667e-01  0.00000000e+00
 5.23684211e-02  3.61818182e-01  0.00000000e+00
 5.23684211e-02  3.91969697e-01  0.00000000e+00
 5.23684211e-02  4.22121212e-01  0.00000000e+00
 5.23684211e-02  4.52272727e-01  0.00000000e+00
 5.23684211e-02  4.82424242e-01  0.00000000e+00
 5.23684211e-02  5.12575758e-01  0.00000000e+00
 5.23684211e-02  5.42727273e-01  0.00000000e+00
 5.23684211e-02  5.72878788e-01  0.00000000e+00
 5.23684211e-02  6.03030303e-01  0.00000000e+00
 5.23684211e-02  6.33181818e-01  0.00000000e+00
 5.23684211e-02  6.63333333e-01  0.00000000e+00
 5.23684211e-02  6.93484848e-01  0.00000000e+00
 5.23684211e-02  7.23636364e-01  0.00000000e+00
 5.23684211e-02  7.53787879e-01  0.00000000e+00
 5.23684211e-02  7.83939394e-01  0.00000000e+00
 5.23684211e-02  8.14090909e-01  0.00000000e+00
 5.23684211e-02  8.44242424e-01  0.00000000e+00
 5.23684211e-02  8.74393939e-01  0.00000000e+00
 5.23684211e-02  9.04545455e-01  0.00000000e+00
 5.23684211e-02  9.34696970e-01  0.00000000e+00
 5.23684211e-02  9.64848485e-01  0.00000000e+00
 5.23684211e-02  9.95000000e-01  0.00000000e+00
 1.04736842e-01  3.01515152e-02  0.00000000e+00
 1.04736842e-01  6.03030303e-02  0.00000000e+00
 1.04736842e-01  9.04545455e-02  0.00000000e+00
 1.04736842e-01  1.20606061e-01  0.00000000e+00
 1.04736842e-01  1.50757576e-01  0.00000000e+00
 1.04736842e-01  1.80909091e-01  0.00000000e+00
 1.04736842e-01  2.11060606e-01  0.00000000e+00
 1.04736842e-01  2.41212121e-01  0.00000000e+00
 1.04736842e-01  2.71363636e-01  0.00000000e+00
 1.04736842e-01  3.01515152e-01  0.00000000e+00
 1.04736842e-01  3.31666667e-01  0.00000000e+00
 1.04736842e-01  3.61818182e-01  0.00000000e+00
 1.04736842e-01  3.91969697e-01  0.00000000e+00
 1.04736842e-01  4.22121212e-01  0.00000000e+00
 1.04736842e-01  4.52272727e-01  0.00000000e+00
 1.04736842e-01  4.82424242e-01  0.00000000e+00
 1.04736842e-01  5.12575758e-01  0.00000000e+00
 1.04736842e-01  5.42727273e-01  0.00000000e+00
 1.04736842e-01  5.72878788e-01  0.00000000e+00
 1.04736842e-01  6.03030303e-01  0.00000000e+00
 1.04736842e-01  6.33181818e-01  0.00000000e+00
 1.04736842e-01  6.63333333e-01  0.00000000e+00
 1.04736842e-01  6.93484848e-01  0.00000000e+00
 1.04736842e-01  7.23636364e-01  0.00000000e+00
 1.04736842e-01  7.53787879e-01  0.00000000e+00
 1.04736842e-01  7.83939394e-01  0.00000000e+00
 1.04736842e-01  8.14090909e-01  0.00000000e+00
 1.04736842e-01  8.44242424e-01  0.00000000e+00
 1.04736842e-01  8.74393939e-01  0.00000000e+00
 1.04736842e-01  9.04545455e-01  0.00000000e+00
 1.04736842e-01  9.34696970e-01  0.00000000e+00
 1.04736842e-01  9.64848485e-01  0.00000000e+00
 1.04736842e-01  9.95000000e-01  0.00000000e+00
 1.57105263e-01  3.01515152e-02  0.00000000e+00
 1.57105263e-01  6.03030303e-02  0.00000000e+00
 1.57105263e-01  9.04545455e-02  0.00000000e+00
 1.57105263e-01  1.20606061e-01  0.00000000e+00
 1.57105263e-01  1.50757576e-01  0.00000000e+00
 1.57105263e-01  1.80909091e-01  0.00000000e+00
 1.57105263e-01  2.11060606e-01  0.00000000e+00
 1.57105263e-01  2.41212121e-01  0.00000000e+00
 1.57105263e-01  2.71363636e-01  0.00000000e+00
 1.57105263e-01  3.01515152e-01  0.00000000e+00
 1.57105263e-01  3.31666667e-01  0.00000000e+00
 1.57105263e-01  3.61818182e-01  0.00000000e+00
 1.57105263e-01  3.91969697e-01  0.00000000e+00
 1.57105263e-01  4.22121212e-01  0.00000000e+00
 1.57105263e-01  4.52272727e-01  0.00000000e+00
 1.57105263e-01  4.82424242e-01  0.00000000e+00
 1.57105263e-01  5.12575758e-01  0.00000000e+00
 1.57105263e-01  5.42727273e-01  0.00000000e+00
 1.57105263e-01  5.72878788e-01  0.00000000e+00
 1.57105263e-01  6.03030303e-01  0.00000000e+00
 1.57105263e-01  6.33181818e-01  0.00000000e+00
 1.57105263e-01  6.63333333e-01  0.00000000e+00
 1.57105263e-01  6.93484848e-01  0.00000000e+00
 1.57105263e-01  7.23636364e-01  0.00000000e+00
 1.57105263e-01  7.53787879e-01  0.00000000e+00
 1.57105263e-01  7.83939394e-01  0.00000000e+00
 1.57105263e-01  8.14090909e-01  0.00000000e+00
 1.57105263e-01  8.44242424e-01  0.00000000e+00
 1.57105263e-01  8.74393939e-01  0.00000000e+00
 1.57105263e-01  9.04545455e-01  0.00000000e+00
 1.57105263e-01  9.34696970e-01  0.00000000e+00
 1.57105263e-01  9.64848485e-01  0.00000000e+00
 1.57105263e-01  9.95000000e-01  0.00000000e+00
 2.09473684e-01  3.01515152e-02  0.00000000e+00
 2.09473684e-01  6.03030303e-02  0.00000000e+00
 2.09473684e-01  9.04545455e-02  0.00000000e+00
 2.09473684e-01  1.20606061e-01  0.00000000e+00
 2.09473684e-01  1.50757576e-01  0.00000000e+00
 2.09473684e-01  1.80909091e-01  0.00000000e+00
 2.09473684e-01  2.11060606e-01  0.00000000e+00
 2.09473684e-01  2.41212121e-01  0.00000000e+00
 2.09473684e-01  2.71363636e-01  0.00000000e+00
 2.09473684e-01  3.01515152e-01  0.00000000e+00
 2.09473684e-01  3.31666667e-01  0.00000000e+00
 2.09473684e-01  3.61818182e-01  0.00000000e+00
 2.09473684e-01  3.91969697e-01  0.00000000e+00
 2.09473684e-01  4.22121212e-01  0.00000000e+00
 2.09473684e-01  4.52272727e-01  0.00000000e+00
 2.09473684e-01  4.82424242e-01  0.00000000e+00
 2.09473684e-01  5.12575758e-01  0.00000000e+00
 2.09473684e-01  5.42727273e-01  0.00000000e+00
 2.09473684e-01  5.72878788e-01  0.00000000e+00
 2.09473684e-01  6.03030303e-01  0.00000000e+00
 2.09473684e-01  6.33181818e-01  0.00000000e+00
 2.09473684e-01  6.63333333e-01  0.00000000e+00
 2.09473684e-01  6.93484848e-01  0.00000000e+00
 2.09473684e-01  7.23636364e-01  0.00000000e+00
 2.09473684e-01  7.53787879e-01  0.00000000e+00
 2.09473684e-01  7.83939394e-01  0.00000000e+00
 2.09473684e-01  8.14090909e-01  0.00000000e+00
 2.09473684e-01  8.44242424e-01  0.00000000e+00
 2.09473684e-01  8.74393939e-01  0.00000000e+00
 2.09473684e-01  9.04545455e-01  0.00000000e+00
 2.09473684e-01  9.34696970e-01  0.00000000e+00
 2.09473684e-01  9.64848485e-01  0.00000000e+00
 2.09473684e-01  9.95000000e-01  0.00000000e+00
 2.61842105e-01  3.01515152e-02  0.00000000e+00
 2.61842105e-01  6.03030303e-02  0.00000000e+00
 2.61842105e-01  9.04545455e-02  0.00000000e+00
 2.61842105e-01  1.20606061e-01  0.00000000e+00
 2.61842105e-01  1.50757576e-01  0.00000000e+00
 2.61842105e-01  1.80909091e-01  0.00000000e+00
 2.61842105e-01  2.11060606e-01  0.00000000e+00
 2.61842105e-01  2.41212121e-01  0.00000000e+00
 2.61842105e-01  2.71363636e-01  0.00000000e+00
 2.61842105e-01  3.01515152e-01  0.00000000e+00
 2.61842105e-01  3.31666667e-01  0.00000000e+00
 2.61842105e-01  3.61818182e-01  0.00000000e+00
 2.61842105e-01  3.91969697e-01  0.00000000e+00
 2.61842105e-01  4.22121212e-01  0.00000000e+00
 2.61842105e-01  4.52272727e-01  0.00000000e+00
 2.61842105e-01  4.82424242e-01  0.00000000e+00
 2.61842105e-01  5.12575758e-01  0.00000000e+00
 2.61842105e-01  5.42727273e-01  0.00000000e+00
 2.61842105e-01  5.72878788e-01  0.00000000e+00
 2.61842105e-01  6.03030303e-01  0.00000000e+00
 2.61842105e-01  6.33181818e-01  0.00000000e+00
 2.61842105e-01  6.63333333e-01  0.00000000e+00
 2.61842105e-01  6.93484848e-01  0.00000000e+00
 2.61842105e-01  7.23636364e-01  0.00000000e+00
 2.61842105e-01  7.53787879e-01  0.00000000e+00
 2.61842105e-01  7.83939394e-01  0.00000000e+00
 2.61842105e-01  8.14090909e-01  0.00000000e+00
 2.61842105e-01  8.44242424e-01  0.00000000e+00
 2.61842105e-01  8.74393939e-01  0.00000000e+00
 2.61842105e-01  9.04545455e-01  0.00000000e+00
 2.61842105e-01  9.34696970e-01  0.00000000e+00
 2.61842105e-01  9.64848485e-01  0.00000000e+00
 2.61842105e-01  9.95000000e-01  0.00000000e+00
 3.14210526e-01  3.01515152e-02  0.00000000e+00
 3.14210526e-01  6.03030303e-02  0.00000000e+00
 3.14210526e-01  9.04545455e-02  0.00000000e+00
 3.14210526e-01  1.20606061e-01  0.00000000e+00
 3.14210526e-01  1.50757576e-01  0.00000000e+00
 3.14210526e-01  1.80909091e-01  0.00000000e+00
 3.14210526e-01  2.11060606e-01  0.00000000e+00
 3.14210526e-01  2.41212121e-01  0.00000000e+00
 3.14210526e-01  2.71363636e-01  0.00000000e+00
 3.14210526e-01  3.01515152e-01  0.00000000e+00
 3.14210526e-01  3.31666667e-01  0.00000000e+00
 3.14210526e-01  3.61818182e-01  0.00000000e+00
 3.14210526e-01  3.91969697e-01  0.00000000e+00
 3.14210526e-01  4.22121212e-01  0.00000000e+00
 3.14210526e-01  4.52272727e-01  0.00000000e+00
 3.14210526e-01  4.82424242e-01  0.00000000e+00
 3.14210526e-01  5.12575758e-01  0.00000000e+00
 3.14210526e-01  5.42727273e-01  0.00000000e+00
 3.14210526e-01  5.72878788e-01  0.00000000e+00
 3.14210526e-01  6.03030303e-01  0.00000000e+00
 3.14210526e-01  6.33181818e-01  0.00000000e+00
 3.14210526e-01  6.63333333e-01  0.00000000e+00
 3.14210526e-01  6.93484848e-01  0.00000000e+00
 3.14210526e-01  7.23636364e-01  0.00000000e+00
 3.14210526e-01  7.53787879e-01  0.00000000e+00
 3.14210526e-01  7.83939394e-01  0.00000000e+00
 3.14210526e-01  8.14090909e-01  0.00000000e+00
 3.14210526e-01  8.44242424e-01  0.00000000e+00
 3.14210526e-01  8.74393939e-01  0.00000000e+00
 3.14210526e-01  9.04545455e-01  0.00000000e+00
 3.14210526e-01  9.34696970e-01  0.00000000e+00
[...]
POINT_DATA  3795
SCALARS pH_output double 1
LOOKUP_TABLE default
1.15461990e+01 
1.15430629e+01 
1.15516867e+01 
1.15549118e+01 
1.15430629e+01 
1.15461990e+01 
1.15303229e+01 
1.15389179e+01 
1.15303229e+01 
6.66382172e+00 
6.66435126e+00 
6.66490201e+00 
6.66548426e+00 
6.66610789e+00 
6.66678224e+00 
6.66751591e+00 
6.66831663e+00 
6.66919102e+00 
6.67014440e+00 
6.67118059e+00 
6.67230170e+00 
6.67350792e+00 
6.67479735e+00 
6.67616582e+00 
6.67760683e+00 
6.67911144e+00 
6.68066829e+00 
6.68226368e+00 
6.68388170e+00 
6.68550445e+00 
6.68711236e+00 
6.68868453e+00 
6.69019923e+00 
6.69163433e+00 
6.69296787e+00 
6.69417862e+00 
6.69524662e+00 
6.69615372e+00 
6.69688409e+00 
6.69742455e+00 
6.69776478e+00 
6.69789614e+00 
6.66438385e+00 
6.66548707e+00 
6.66663452e+00 
6.66784760e+00 
6.66914690e+00 
6.67055187e+00 
6.67208043e+00 
6.67374862e+00 
6.67557021e+00 
6.67755624e+00 
6.67971458e+00 
6.68204951e+00 
6.68456131e+00 
6.68724582e+00 
6.69009420e+00 
6.69309267e+00 
6.69622238e+00 
6.69945945e+00 
6.70277512e+00 
6.70613610e+00 
6.70950501e+00 
6.71284110e+00 
6.71610101e+00 
6.71923972e+00 
6.72221157e+00 
6.72497139e+00 
6.72747561e+00 
6.72968341e+00 
6.73155777e+00 
6.73306649e+00 
6.73418298e+00 
6.73488687e+00 
6.73516487e+00 
6.66499017e+00 
6.66671220e+00 
6.66850326e+00 
6.67039679e+00 
6.67242492e+00 
6.67461796e+00 
6.67700383e+00 
6.67960752e+00 
6.68245037e+00 
6.68554944e+00 
6.68891679e+00 
6.69255879e+00 
6.69647545e+00 
6.70065984e+00 
6.70509760e+00 
6.70976658e+00 
6.71463674e+00 
6.71967018e+00 
6.72482144e+00 
6.73003817e+00 
6.73526187e+00 
6.74042904e+00 
6.74547250e+00 
6.75032286e+00 
6.75491014e+00 
6.75916546e+00 
6.76302273e+00 
6.76642032e+00 
6.76930259e+00 
6.77162134e+00 
6.77333703e+00 
6.77441991e+00 
6.77485088e+00 
6.66564118e+00 
6.66802762e+00 
6.67050975e+00 
6.67313389e+00 
6.67594455e+00 
6.67898365e+00 
6.68228980e+00 
6.68589742e+00 
6.68983583e+00 
6.69412828e+00 
6.69879096e+00 
6.70383203e+00 
6.70925066e+00 
6.71503623e+00 
6.72116765e+00 
6.72761297e+00 
6.73432921e+00 
6.74126258e+00 
6.74834907e+00 
6.75551537e+00 
6.76268023e+00 
6.76975611e+00 
6.77665115e+00 
6.78327121e+00 
6.78952216e+00 
6.79531202e+00 
6.80055313e+00 
6.80516418e+00 
6.80907211e+00 
6.81221381e+00 
6.81453772e+00 
6.81600513e+00 
6.81659133e+00 
6.66633673e+00 
6.66943305e+00 
6.67265353e+00 
6.67605826e+00 
6.67970490e+00 
6.68364773e+00 
6.68793660e+00 
6.69261583e+00 
6.69772294e+00 
6.70328740e+00 
6.70932924e+00 
6.71585782e+00 
6.72287050e+00 
6.73035168e+00 
6.73827192e+00 
6.74658750e+00 
6.75524039e+00 
6.76415872e+00 
6.77325776e+00 
6.78244146e+00 
6.79160449e+00 
6.80063461e+00 
6.80941535e+00 
6.81782877e+00 
6.82575814e+00 
6.83309047e+00 
6.83971874e+00 
6.84554403e+00 
6.85047739e+00 
6.85444178e+00 
6.85737387e+00 
6.85922590e+00 
6.85996721e+00 
6.66707585e+00 
6.67092652e+00 
6.67493158e+00 
6.67916570e+00 
6.68370047e+00 
6.68860314e+00 
6.69393533e+00 
6.69975154e+00 
6.70609758e+00 
6.71300887e+00 
6.72050875e+00 
6.72860679e+00 
6.73729723e+00 
6.74655768e+00 
6.75634821e+00 
6.76661097e+00 
6.77727036e+00 
6.78823401e+00 
6.79939445e+00 
6.81063150e+00 
6.82181525e+00 
6.83280946e+00 
6.84347509e+00 
6.85367355e+00 
6.86326958e+00 
6.87213340e+00 
6.88014232e+00 
6.88718198e+00 
6.89314774e+00 
6.89794660e+00 
6.90149987e+00 
6.90374656e+00 
6.90464664e+00 
6.66785654e+00 
6.67250396e+00 
6.67733764e+00 
6.68244761e+00 
6.68792003e+00 
6.69383567e+00 
6.70026826e+00 
6.70728264e+00 
6.71493272e+00 
6.72325940e+00 
6.73228838e+00 
6.74202810e+00 
6.75246781e+00 
6.76357610e+00 
6.77530000e+00 
6.78756471e+00 
6.80027441e+00 
6.81331393e+00 
6.82655154e+00 
6.83984261e+00 
6.85303412e+00 
6.86596935e+00 
6.87849250e+00 
6.89045233e+00 
6.90170424e+00 
6.91211056e+00 
6.92153907e+00 
6.92986100e+00 
6.93695014e+00 
6.94268467e+00 
6.94695278e+00 
6.94966151e+00 
6.95074693e+00 
6.66867556e+00 
6.67415880e+00 
6.67986166e+00 
6.68589016e+00 
6.69234557e+00 
6.69932261e+00 
6.70690729e+00 
6.71517468e+00 
6.72418641e+00 
6.73398798e+00 
6.74460618e+00 
6.75604648e+00 
6.76829089e+00 
6.78129631e+00 
6.79499374e+00 
6.80928857e+00 
6.82406219e+00 
6.83917490e+00 
6.85447043e+00 
6.86978170e+00 
6.88493759e+00 
6.89977022e+00 
6.91412136e+00 
6.92784654e+00 
6.94081482e+00 
6.95290275e+00 
6.96398322e+00 
6.97391195e+00 
6.98251794e+00 
6.98960389e+00 
6.99496146e+00 
6.99839929e+00 
6.99977695e+00 
6.66952829e+00 
6.67588171e+00 
6.68248932e+00 
6.68947366e+00 
6.69695154e+00 
6.70503180e+00 
6.71381274e+00 
6.72337934e+00 
6.73380016e+00 
6.74512418e+00 
6.75737753e+00 
6.77056054e+00 
6.78464530e+00 
6.79957402e+00 
6.81525864e+00 
6.83158195e+00 
6.84840054e+00 
6.86554973e+00 
6.88285060e+00 
6.90011937e+00 
6.91717868e+00 
6.93387043e+00 
6.95006773e+00 
6.96568194e+00 
6.98065820e+00 
6.99495301e+00 
7.00849234e+00 
7.02111900e+00 
7.03254863e+00 
7.04236231e+00 
7.05004938e+00 
7.05510259e+00 
7.05713359e+00 
6.67040862e+00 
6.67766029e+00 
6.68520165e+00 
6.69317209e+00 
6.70170419e+00 
6.71092090e+00 
6.72093258e+00 
6.73183347e+00 
6.74369808e+00 
6.75657727e+00 
6.77049451e+00 
6.78544245e+00 
6.80138032e+00 
6.81823258e+00 
6.83588919e+00 
6.85420813e+00 
6.87302027e+00 
6.89213724e+00 
6.91136266e+00 
6.93050776e+00 
6.94941240e+00 
6.96797203e+00 
6.98616804e+00 
7.00409124e+00 
7.02193710e+00 
7.03994485e+00 
7.05826207e+00 
7.07675421e+00 
7.09483830e+00 
7.11143121e+00 
7.12510479e+00 
7.13438589e+00 
7.13813892e+00 
6.67130888e+00 
6.67947901e+00 
6.68797487e+00 
6.69695288e+00 
6.70656133e+00 
6.71693712e+00 
6.72820211e+00 
6.74045895e+00 
6.75378674e+00 
6.76823644e+00 
6.78382651e+00 
6.80053919e+00 
6.81831790e+00 
6.83706644e+00 
6.85665042e+00 
6.87690161e+00 
6.89762573e+00 
6.91861436e+00 
6.93966296e+00 
6.96059783e+00 
6.98131752e+00 
7.00185509e+00 
7.02246341e+00 
7.04370595e+00 
7.06649004e+00 
7.09192335e+00 
7.12088906e+00 
7.15338194e+00 
7.18790593e+00 
7.22143729e+00 
7.24998617e+00 
7.26969472e+00 
7.27768940e+00 
6.67221983e+00 
6.68131920e+00 
6.69078043e+00 
6.70077690e+00 
6.71147241e+00 
6.72301734e+00 
6.73554427e+00 
6.74916315e+00 
6.76395608e+00 
6.77997208e+00 
6.79722217e+00 
6.81567545e+00 
6.83525677e+00 
6.85584682e+00 
6.87728524e+00 
6.89937745e+00 
6.92190611e+00 
6.94464892e+00 
6.96740687e+00 
6.99005116e+00 
7.01260462e+00 
7.03538213e+00 
7.05921559e+00 
7.08575205e+00 
7.11767295e+00 
7.15839167e+00 
7.21063655e+00 
7.27416330e+00 
7.34424583e+00 
7.41247636e+00 
7.46983219e+00 
7.50867937e+00 
7.52433217e+00 
6.67313075e+00 
6.68315915e+00 
6.69358519e+00 
6.70459887e+00 
6.71637902e+00 
6.72908882e+00 
6.74287060e+00 
6.75784023e+00 
6.77408112e+00 
6.79163821e+00 
6.81051268e+00 
6.83065797e+00 
6.85197807e+00 
6.87432885e+00 
6.89752333e+00 
6.92134160e+00 
6.94554688e+00 
6.96991106e+00 
6.99425795e+00 
7.01854231e+00 
7.04300163e+00 
7.06844640e+00 
7.09677938e+00 
7.13177749e+00 
7.17979306e+00 
7.24900847e+00 
7.34500340e+00 
7.46384527e+00 
7.59122389e+00 
7.70970700e+00 
7.80449951e+00 
7.86695934e+00 
7.89162608e+00 
6.67402955e+00 
6.68497446e+00 
6.69635190e+00 
6.70836792e+00 
6.72121572e+00 
6.73507034e+00 
6.75008270e+00 
6.76637314e+00 
6.78402455e+00 
6.80307578e+00 
6.82351600e+00 
6.84528092e+00 
6.86825201e+00 
6.89225950e+00 
6.91709020e+00 
6.94250092e+00 
6.96823998e+00 
6.99408225e+00 
7.01989269e+00 
7.04575186e+00 
7.07221633e+00 
7.10085454e+00 
7.13527413e+00 
7.18274970e+00 
7.25557055e+00 
7.36847169e+00 
7.52784480e+00 
7.72001761e+00 
7.91573133e+00 
8.08826277e+00 
8.22231475e+00 
8.30757658e+00 
8.34180129e+00 
6.67490303e+00 
6.68673844e+00 
6.69903985e+00 
6.71202861e+00 
6.72591133e+00 
6.74087383e+00 
6.75707435e+00 
6.77463618e+00 
6.79364002e+00 
6.81411679e+00 
6.83604189e+00 
6.85933187e+00 
6.88384484e+00 
6.90938552e+00 
6.93571579e+00 
6.96257197e+00 
6.98969203e+00 
7.01686159e+00 
7.04400197e+00 
7.07135525e+00 
7.09988995e+00 
7.13217763e+00 
7.17413435e+00 
7.23773367e+00 
7.34243351e+00 
7.50787087e+00 
7.73554974e+00 
8.00163480e+00 
8.26945191e+00 
8.50219981e+00 
8.67750776e+00 
8.79120539e+00 
8.83447796e+00 
6.67573709e+00 
6.68842263e+00 
6.70160575e+00 
6.71552204e+00 
6.73039044e+00 
6.74640635e+00 
6.76373399e+00 
6.78249816e+00 
6.80277587e+00 
6.82458872e+00 
6.84789714e+00 
6.87259780e+00 
6.89852555e+00 
6.92546054e+00 
6.95314175e+00 
6.98128792e+00 
7.00963040e+00 
7.03797028e+00 
7.06629251e+00 
7.09501684e+00 
7.12556913e+00 
7.16165335e+00 
7.21180352e+00 
7.29308812e+00 
7.43129736e+00 
7.64665439e+00 
7.93237874e+00 
8.25900093e+00 
8.59464832e+00 
8.90458243e+00 
9.14528986e+00 
9.29128808e+00 
9.35482949e+00 
6.67651709e+00 
6.68999752e+00 
6.70400471e+00 
6.71878729e+00 
6.73457527e+00 
6.75157235e+00 
6.76994746e+00 
6.78982565e+00 
6.81127909e+00 
6.83431910e+00 
6.85889067e+00 
6.88487073e+00 
6.91207170e+00 
6.94025094e+00 
6.96912689e+00 
6.99840336e+00 
7.02780722e+00 
7.05715512e+00 
7.08649103e+00 
7.11639783e+00 
7.14872404e+00 
7.18822861e+00 
7.24586284e+00 
7.34308754e+00 
7.50978227e+00 
7.76362315e+00 
8.09059616e+00 
8.46025566e+00 
8.84669087e+00 
9.23227655e+00 
9.58002244e+00 
9.81663270e+00 
9.89125793e+00 
6.67722822e+00 
6.69143324e+00 
6.70619137e+00 
6.72176291e+00 
6.73838758e+00 
6.75627612e+00 
6.77560096e+00 
6.79648643e+00 
6.81899912e+00 
6.84313979e+00 
6.86883817e+00 
6.89595238e+00 
6.92427406e+00 
6.95354000e+00 
6.98345066e+00 
7.01369702e+00 
7.04400158e+00 
7.07419155e+00 
7.10435222e+00 
7.13518047e+00 
7.16882028e+00 
7.21076833e+00 
7.27364050e+00 
7.38172155e+00 
7.56680085e+00 
7.84381804e+00 
8.19467463e+00 
8.58931097e+00 
9.00725163e+00 
9.43703567e+00 
9.88159517e+00 
1.02878933e+01 
1.05157695e+01 
6.67785583e+00 
6.69270032e+00 
6.70812106e+00 
6.72438850e+00 
6.74175068e+00 
6.76042413e+00 
6.78058383e+00 
6.80235267e+00 
6.82579147e+00 
6.85089071e+00 
6.87756586e+00 
6.90565784e+00 
6.93493975e+00 
6.96513044e+00 
6.99591486e+00 
7.02697257e+00 
7.05802006e+00 
7.08888586e+00 
7.11966832e+00 
7.15110117e+00 
7.18542203e+00 
7.22835663e+00 
7.29302867e+00 
7.40453922e+00 
7.59515070e+00 
7.87898484e+00 
8.23702496e+00 
8.63968650e+00 
9.06730373e+00 
9.51465339e+00 
9.97788594e+00 
1.05185607e+01 
6.69789810e+00 
6.69789614e+00 
6.73517010e+00 
6.73516487e+00 
6.77485929e+00 
6.77485088e+00 
6.81660302e+00 
6.81659133e+00 
6.85998214e+00 
6.85996721e+00 
6.90466487e+00 
6.90464664e+00 
6.95076843e+00 
6.95074693e+00 
6.99980411e+00 
6.99977695e+00 
7.05716789e+00 
7.05713359e+00 
7.13820972e+00 
7.13813892e+00 
7.27779689e+00 
7.27768940e+00 
7.52464693e+00 
7.52433217e+00 
7.89195318e+00 
7.89162608e+00 
8.34255337e+00 
8.34180129e+00 
8.83508370e+00 
8.83447796e+00 
9.35635878e+00 
9.35482949e+00 
9.89225321e+00 
9.89125793e+00 
1.05212970e+01 
1.05157695e+01 
6.69776478e+00 
6.69742455e+00 
6.69688409e+00 
6.69615372e+00 
6.69524662e+00 
6.69417862e+00 
6.69296787e+00 
6.69163433e+00 
6.69019923e+00 
6.68868453e+00 
6.68711236e+00 
6.68550445e+00 
6.68388170e+00 
6.68226369e+00 
6.68066829e+00 
6.67911144e+00 
6.67760683e+00 
6.67616582e+00 
6.67479735e+00 
6.67350792e+00 
6.67230170e+00 
6.67118059e+00 
6.67014440e+00 
6.66919102e+00 
6.66831663e+00 
6.66751591e+00 
6.66678224e+00 
6.66610789e+00 
6.66548426e+00 
6.66490201e+00 
6.66435126e+00 
6.66382173e+00 
6.73488687e+00 
6.73418298e+00 
6.73306649e+00 
6.73155777e+00 
6.72968341e+00 
6.72747562e+00 
6.72497139e+00 
6.72221157e+00 
6.71923972e+00 
6.71610101e+00 
6.71284110e+00 
6.70950501e+00 
6.70613610e+00 
6.70277513e+00 
6.69945945e+00 
6.69622238e+00 
6.69309267e+00 
6.69009420e+00 
6.68724582e+00 
6.68456131e+00 
6.68204951e+00 
6.67971458e+00 
6.67755624e+00 
6.67557021e+00 
6.67374862e+00 
6.67208043e+00 
6.67055187e+00 
6.66914690e+00 
6.66784760e+00 
6.66663452e+00 
6.66548708e+00 
6.66438385e+00 
6.77441991e+00 
6.77333703e+00 
6.77162134e+00 
6.76930259e+00 
6.76642032e+00 
6.76302273e+00 
6.75916546e+00 
6.75491015e+00 
6.75032287e+00 
6.74547251e+00 
6.74042904e+00 
6.73526187e+00 
6.73003817e+00 
6.72482145e+00 
6.71967018e+00 
6.71463675e+00 
6.70976659e+00 
6.70509760e+00 
6.70065984e+00 
6.69647545e+00 
6.69255879e+00 
6.68891679e+00 
6.68554944e+00 
6.68245037e+00 
6.67960752e+00 
6.67700383e+00 
6.67461796e+00 
6.67242492e+00 
6.67039679e+00 
6.66850326e+00 
6.66671220e+00 
6.66499017e+00 
6.81600513e+00 
6.81453772e+00 
6.81221381e+00 
6.80907211e+00 
6.80516418e+00 
6.80055313e+00 
6.79531202e+00 
6.78952217e+00 
6.78327122e+00 
6.77665115e+00 
6.76975611e+00 
6.76268023e+00 
6.75551537e+00 
6.74834908e+00 
6.74126259e+00 
6.73432921e+00 
6.72761297e+00 
6.72116765e+00 
6.71503623e+00 
6.70925067e+00 
6.70383203e+00 
6.69879096e+00 
6.69412828e+00 
6.68983583e+00 
6.68589742e+00 
6.68228980e+00 
6.67898365e+00 
6.67594455e+00 
6.67313389e+00 
6.67050975e+00 
6.66802762e+00 
6.66564118e+00 
6.85922590e+00 
6.85737387e+00 
6.85444178e+00 
6.85047740e+00 
6.84554403e+00 
6.83971874e+00 
6.83309047e+00 
6.82575814e+00 
6.81782877e+00 
6.80941535e+00 
6.80063461e+00 
6.79160450e+00 
6.78244147e+00 
6.77325776e+00 
6.76415872e+00 
6.75524039e+00 
6.74658750e+00 
6.73827192e+00 
6.73035168e+00 
6.72287051e+00 
6.71585782e+00 
6.70932925e+00 
6.70328740e+00 
6.69772295e+00 
6.69261583e+00 
6.68793660e+00 
6.68364773e+00 
6.67970490e+00 
6.67605826e+00 
6.67265353e+00 
6.66943305e+00 
6.66633673e+00 
6.90374657e+00 
6.90149988e+00 
6.89794660e+00 
6.89314775e+00 
6.88718198e+00 
6.88014232e+00 
6.87213340e+00 
6.86326958e+00 
6.85367355e+00 
6.84347510e+00 
6.83280947e+00 
6.82181525e+00 
6.81063150e+00 
6.79939446e+00 
6.78823401e+00 
6.77727036e+00 
6.76661097e+00 
6.75634822e+00 
6.74655768e+00 
6.73729723e+00 
6.72860680e+00 
6.72050876e+00 
6.71300887e+00 
6.70609758e+00 
6.69975155e+00 
6.69393534e+00 
6.68860315e+00 
6.68370047e+00 
6.67916570e+00 
6.67493158e+00 
6.67092652e+00 
6.66707585e+00 
6.94966152e+00 
6.94695278e+00 
6.94268467e+00 
6.93695014e+00 
6.92986100e+00 
6.92153907e+00 
6.91211057e+00 
6.90170425e+00 
6.89045233e+00 
6.87849251e+00 
6.86596936e+00 
6.85303413e+00 
6.83984262e+00 
6.82655155e+00 
6.81331394e+00 
6.80027442e+00 
6.78756472e+00 
6.77530001e+00 
6.76357611e+00 
6.75246781e+00 
6.74202810e+00 
6.73228839e+00 
6.72325940e+00 
6.71493272e+00 
6.70728264e+00 
6.70026826e+00 
6.69383567e+00 
6.68792003e+00 
6.68244761e+00 
6.67733764e+00 
6.67250396e+00 
6.66785654e+00 
6.99839929e+00 
6.99496146e+00 
6.98960390e+00 
6.98251795e+00 
6.97391196e+00 
6.96398323e+00 
6.95290276e+00 
6.94081482e+00 
6.92784655e+00 
6.91412137e+00 
6.89977023e+00 
6.88493760e+00 
6.86978171e+00 
6.85447044e+00 
6.83917490e+00 
6.82406220e+00 
6.80928858e+00 
6.79499375e+00 
6.78129631e+00 
6.76829089e+00 
6.75604648e+00 
6.74460618e+00 
6.73398799e+00 
6.72418641e+00 
6.71517469e+00 
6.70690729e+00 
6.69932261e+00 
6.69234558e+00 
6.68589016e+00 
6.67986167e+00 
6.67415880e+00 
6.66867556e+00 
7.05510259e+00 
7.05004938e+00 
7.04236232e+00 
7.03254864e+00 
7.02111901e+00 
7.00849235e+00 
6.99495302e+00 
6.98065821e+00 
6.96568195e+00 
6.95006774e+00 
6.93387044e+00 
6.91717869e+00 
6.90011938e+00 
6.88285062e+00 
6.86554974e+00 
6.84840056e+00 
6.83158196e+00 
6.81525865e+00 
6.79957403e+00 
6.78464531e+00 
6.77056055e+00 
6.75737753e+00 
6.74512419e+00 
6.73380017e+00 
6.72337934e+00 
6.71381274e+00 
6.70503180e+00 
6.69695154e+00 
6.68947366e+00 
6.68248932e+00 
6.67588171e+00 
6.66952829e+00 
7.13438590e+00 
7.12510480e+00 
7.11143122e+00 
7.09483831e+00 
7.07675422e+00 
7.05826209e+00 
7.03994486e+00 
7.02193712e+00 
7.00409125e+00 
6.98616806e+00 
6.96797204e+00 
6.94941241e+00 
6.93050777e+00 
6.91136267e+00 
6.89213725e+00 
6.87302029e+00 
6.85420814e+00 
6.83588921e+00 
6.81823259e+00 
6.80138033e+00 
6.78544246e+00 
6.77049452e+00 
6.75657728e+00 
6.74369808e+00 
6.73183348e+00 
6.72093258e+00 
6.71092091e+00 
6.70170419e+00 
6.69317210e+00 
6.68520165e+00 
6.67766029e+00 
6.67040863e+00 
7.26969471e+00 
7.24998617e+00 
7.22143729e+00 
7.18790594e+00 
7.15338195e+00 
7.12088908e+00 
7.09192336e+00 
7.06649006e+00 
7.04370597e+00 
7.02246343e+00 
7.00185511e+00 
6.98131754e+00 
6.96059785e+00 
6.93966298e+00 
6.91861437e+00 
6.89762574e+00 
6.87690163e+00 
6.85665043e+00 
6.83706645e+00 
6.81831792e+00 
6.80053919e+00 
6.78382652e+00 
6.76823644e+00 
6.75378675e+00 
6.74045895e+00 
6.72820211e+00 
6.71693713e+00 
6.70656133e+00 
6.69695288e+00 
6.68797488e+00 
6.67947901e+00 
6.67130888e+00 
7.50867936e+00 
7.46983220e+00 
7.41247636e+00 
7.34424584e+00 
7.27416330e+00 
7.21063657e+00 
7.15839168e+00 
7.11767297e+00 
7.08575206e+00 
7.05921561e+00 
7.03538215e+00 
7.01260464e+00 
6.99005118e+00 
6.96740689e+00 
6.94464893e+00 
6.92190613e+00 
6.89937747e+00 
6.87728526e+00 
6.85584684e+00 
6.83525678e+00 
6.81567546e+00 
6.79722218e+00 
6.77997209e+00 
6.76395609e+00 
6.74916316e+00 
6.73554428e+00 
6.72301734e+00 
6.71147242e+00 
6.70077691e+00 
6.69078044e+00 
6.68131920e+00 
6.67221983e+00 
7.86695933e+00 
7.80449952e+00 
7.70970699e+00 
7.59122391e+00 
7.46384527e+00 
7.34500342e+00 
7.24900849e+00 
7.17979308e+00 
7.13177750e+00 
7.09677940e+00 
7.06844642e+00 
7.04300165e+00 
7.01854233e+00 
6.99425797e+00 
6.96991108e+00 
6.94554690e+00 
6.92134162e+00 
6.89752335e+00 
6.87432886e+00 
6.85197809e+00 
6.83065798e+00 
6.81051269e+00 
6.79163822e+00 
6.77408113e+00 
6.75784024e+00 
6.74287061e+00 
6.72908882e+00 
6.71637903e+00 
6.70459887e+00 
6.69358520e+00 
6.68315915e+00 
6.67313075e+00 
8.30757657e+00 
8.22231476e+00 
8.08826276e+00 
7.91573136e+00 
7.72001761e+00 
7.52784483e+00 
7.36847170e+00 
7.25557058e+00 
7.18274972e+00 
7.13527416e+00 
7.10085456e+00 
7.07221636e+00 
7.04575188e+00 
7.01989271e+00 
6.99408227e+00 
6.96824000e+00 
6.94250094e+00 
6.91709022e+00 
6.89225952e+00 
6.86825203e+00 
6.84528094e+00 
6.82351602e+00 
6.80307579e+00 
6.78402456e+00 
6.76637315e+00 
6.75008271e+00 
6.73507034e+00 
6.72121573e+00 
6.70836793e+00 
6.69635190e+00 
6.68497447e+00 
6.67402956e+00 
8.79120539e+00 
8.67750777e+00 
8.50219980e+00 
8.26945194e+00 
8.00163479e+00 
7.73554979e+00 
7.50787088e+00 
7.34243355e+00 
7.23773369e+00 
7.17413438e+00 
7.13217765e+00 
7.09988998e+00 
7.07135528e+00 
7.04400200e+00 
7.01686161e+00 
6.98969205e+00 
6.96257200e+00 
6.93571582e+00 
6.90938554e+00 
6.88384486e+00 
6.85933188e+00 
6.83604191e+00 
6.81411681e+00 
6.79364003e+00 
6.77463619e+00 
6.75707436e+00 
6.74087384e+00 
6.72591134e+00 
6.71202861e+00 
6.69903985e+00 
6.68673844e+00 
6.67490303e+00 
9.29128807e+00 
9.14528987e+00 
8.90458241e+00 
8.59464836e+00 
8.25900092e+00 
7.93237879e+00 
7.64665440e+00 
7.43129741e+00 
7.29308814e+00 
7.21180356e+00 
7.16165338e+00 
7.12556916e+00 
7.09501687e+00 
7.06629255e+00 
7.03797031e+00 
7.00963043e+00 
6.98128795e+00 
6.95314178e+00 
6.92546057e+00 
6.89852557e+00 
6.87259782e+00 
6.84789716e+00 
6.82458874e+00 
6.80277589e+00 
6.78249817e+00 
6.76373400e+00 
6.74640636e+00 
6.73039045e+00 
6.71552205e+00 
6.70160575e+00 
6.68842264e+00 
6.67573709e+00 
9.81663269e+00 
9.58002247e+00 
9.23227653e+00 
8.84669093e+00 
8.46025566e+00 
8.09059623e+00 
7.76362316e+00 
7.50978233e+00 
7.34308757e+00 
7.24586288e+00 
7.18822864e+00 
7.14872408e+00 
7.11639786e+00 
7.08649107e+00 
7.05715515e+00 
7.02780726e+00 
6.99840339e+00 
6.96912692e+00 
6.94025097e+00 
6.91207173e+00 
6.88487075e+00 
6.85889069e+00 
6.83431912e+00 
6.81127911e+00 
6.78982567e+00 
6.76994748e+00 
6.75157236e+00 
6.73457528e+00 
6.71878729e+00 
6.70400471e+00 
6.68999753e+00 
6.67651710e+00 
1.02878933e+01 
9.88159522e+00 
9.43703565e+00 
9.00725169e+00 
8.58931097e+00 
8.19467470e+00 
7.84381805e+00 
7.56680092e+00 
7.38172158e+00 
7.27364055e+00 
7.21076837e+00 
7.16882032e+00 
7.13518050e+00 
7.10435227e+00 
7.07419159e+00 
7.04400162e+00 
7.01369706e+00 
6.98345070e+00 
6.95354003e+00 
6.92427409e+00 
6.89595241e+00 
6.86883820e+00 
6.84313981e+00 
6.81899914e+00 
6.79648645e+00 
6.77560098e+00 
6.75627613e+00 
6.73838759e+00 
6.72176291e+00 
6.70619138e+00 