# vtk DataFile Version 2.0
vtk output
ASCII
DATASET UNSTRUCTURED_GRID
POINTS 202 float 
 1.01000000e-03  0.00000000e+00  0.00000000e+00
 1.01000000e-03  2.00000000e-03  0.00000000e+00
 2.02000000e-03  0.00000000e+00  0.00000000e+00
 2.02000000e-03  2.00000000e-03  0.00000000e+00
 3.03000000e-03  0.00000000e+00  0.00000000e+00
 3.03000000e-03  2.00000000e-03  0.00000000e+00
 4.04000000e-03  0.00000000e+00  0.00000000e+00
 4.04000000e-03  2.00000000e-03  0.00000000e+00
 5.05000000e-03  0.00000000e+00  0.00000000e+00
 5.05000000e-03  2.00000000e-03  0.00000000e+00
 6.06000000e-03  0.00000000e+00  0.00000000e+00
 6.06000000e-03  2.00000000e-03  0.00000000e+00
 7.07000000e-03  0.00000000e+00  0.00000000e+00
 7.07000000e-03  2.00000000e-03  0.00000000e+00
 8.08000000e-03  0.00000000e+00  0.00000000e+00
 8.08000000e-03  2.00000000e-03  0.00000000e+00
 9.09000000e-03  0.00000000e+00  0.00000000e+00
 9.09000000e-03  2.00000000e-03  0.00000000e+00
 1.01000000e-02  0.00000000e+00  0.00000000e+00
 1.01000000e-02  2.00000000e-03  0.00000000e+00
 1.11100000e-02  0.00000000e+00  0.00000000e+00
 1.11100000e-02  2.00000000e-03  0.00000000e+00
 1.21200000e-02  0.00000000e+00  0.00000000e+00
 1.21200000e-02  2.00000000e-03  0.00000000e+00
 1.31300000e-02  0.00000000e+00  0.00000000e+00
 1.31300000e-02  2.00000000e-03  0.00000000e+00
 1.41400000e-02  0.00000000e+00  0.00000000e+00
 1.41400000e-02  2.00000000e-03  0.00000000e+00
 1.51500000e-02  0.00000000e+00  0.00000000e+00
 1.51500000e-02  2.00000000e-03  0.00000000e+00
 1.61600000e-02  0.00000000e+00  0.00000000e+00
 1.61600000e-02  2.00000000e-03  0.00000000e+00
 1.71700000e-02  0.00000000e+00  0.00000000e+00
 1.71700000e-02  2.00000000e-03  0.00000000e+00
 1.81800000e-02  0.00000000e+00  0.00000000e+00
 1.81800000e-02  2.00000000e-03  0.00000000e+00
 1.91900000e-02  0.00000000e+00  0.00000000e+00
 1.91900000e-02  2.00000000e-03  0.00000000e+00
 2.02000000e-02  0.00000000e+00  0.00000000e+00
 2.02000000e-02  2.00000000e-03  0.00000000e+00
 2.12100000e-02  0.00000000e+00  0.00000000e+00
 2.12100000e-02  2.00000000e-03  0.00000000e+00
 2.22200000e-02  0.00000000e+00  0.00000000e+00
 2.22200000e-02  2.00000000e-03  0.00000000e+00
 2.32300000e-02  0.00000000e+00  0.00000000e+00
 2.32300000e-02  2.00000000e-03  0.00000000e+00
 2.42400000e-02  0.00000000e+00  0.00000000e+00
 2.42400000e-02  2.00000000e-03  0.00000000e+00
 2.52500000e-02  0.00000000e+00  0.00000000e+00
 2.52500000e-02  2.00000000e-03  0.00000000e+00
 2.62600000e-02  0.00000000e+00  0.00000000e+00
 2.62600000e-02  2.00000000e-03  0.00000000e+00
 2.72700000e-02  0.00000000e+00  0.00000000e+00
 2.72700000e-02  2.00000000e-03  0.00000000e+00
 2.82800000e-02  0.00000000e+00  0.00000000e+00
 2.82800000e-02  2.00000000e-03  0.00000000e+00
 2.92900000e-02  0.00000000e+00  0.00000000e+00
 2.92900000e-02  2.00000000e-03  0.00000000e+00
 3.03000000e-02  0.00000000e+00  0.00000000e+00
 3.03000000e-02  2.00000000e-03  0.00000000e+00
 3.13100000e-02  0.00000000e+00  0.00000000e+00
 3.13100000e-02  2.00000000e-03  0.00000000e+00
 3.23200000e-02  0.00000000e+00  0.00000000e+00
 3.23200000e-02  2.00000000e-03  0.00000000e+00
 3.33300000e-02  0.00000000e+00  0.00000000e+00
 3.33300000e-02  2.00000000e-03  0.00000000e+00
 3.43400000e-02  0.00000000e+00  0.00000000e+00
 3.43400000e-02  2.00000000e-03  0.00000000e+00
 3.53500000e-02  0.00000000e+00  0.00000000e+00
 3.53500000e-02  2.00000000e-03  0.00000000e+00
 3.63600000e-02  0.00000000e+00  0.00000000e+00
 3.63600000e-02  2.00000000e-03  0.00000000e+00
 3.73700000e-02  0.00000000e+00  0.00000000e+00
 3.73700000e-02  2.00000000e-03  0.00000000e+00
 3.83800000e-02  0.00000000e+00  0.00000000e+00
 3.83800000e-02  2.00000000e-03  0.00000000e+00
 3.93900000e-02  0.00000000e+00  0.00000000e+00
 3.93900000e-02  2.00000000e-03  0.00000000e+00
 4.04000000e-02  0.00000000e+00  0.00000000e+00
 4.04000000e-02  2.00000000e-03  0.00000000e+00
 4.14100000e-02  0.00000000e+00  0.00000000e+00
 4.14100000e-02  2.00000000e-03  0.00000000e+00
 4.24200000e-02  0.00000000e+00  0.00000000e+00
 4.24200000e-02  2.00000000e-03  0.00000000e+00
 4.34300000e-02  0.00000000e+00  0.00000000e+00
 4.34300000e-02  2.00000000e-03  0.00000000e+00
 4.44400000e-02  0.00000000e+00  0.00000000e+00
 4.44400000e-02  2.00000000e-03  0.00000000e+00
 4.54500000e-02  0.00000000e+00  0.00000000e+00
 4.54500000e-02  2.00000000e-03  0.00000000e+00
 4.64600000e-02  0.00000000e+00  0.00000000e+00
 4.64600000e-02  2.00000000e-03  0.00000000e+00
 4.74700000e-02  0.00000000e+00  0.00000000e+00
 4.74700000e-02  2.00000000e-03  0.00000000e+00
 4.84800000e-02  0.00000000e+00  0.00000000e+00
 4.84800000e-02  2.00000000e-03  0.00000000e+00
 4.94900000e-02  0.00000000e+00  0.00000000e+00
 4.94900000e-02  2.00000000e-03  0.00000000e+00
 5.05000000e-02  0.00000000e+00  0.00000000e+00
 5.05000000e-02  2.00000000e-03  0.00000000e+00
 5.15100000e-02  0.00000000e+00  0.00000000e+00
 5.15100000e-02  2.00000000e-03  0.00000000e+00
 5.25200000e-02  0.00000000e+00  0.00000000e+00
 5.25200000e-02  2.00000000e-03  0.00000000e+00
 5.35300000e-02  0.00000000e+00  0.00000000e+00
 5.35300000e-02  2.00000000e-03  0.00000000e+00
 5.45400000e-02  0.00000000e+00  0.00000000e+00
 5.45400000e-02  2.00000000e-03  0.00000000e+00
 5.55500000e-02  0.00000000e+00  0.00000000e+00
 5.55500000e-02  2.00000000e-03  0.00000000e+00
 5.65600000e-02  0.00000000e+00  0.00000000e+00
 5.65600000e-02  2.00000000e-03  0.00000000e+00
 5.75700000e-02  0.00000000e+00  0.00000000e+00
 5.75700000e-02  2.00000000e-03  0.00000000e+00
 5.85800000e-02  0.00000000e+00  0.00000000e+00
 5.85800000e-02  2.00000000e-03  0.00000000e+00
 5.95900000e-02  0.00000000e+00  0.00000000e+00
 5.95900000e-02  2.00000000e-03  0.00000000e+00
 6.06000000e-02  0.00000000e+00  0.00000000e+00
 6.06000000e-02  2.00000000e-03  0.00000000e+00
 6.16100000e-02  0.00000000e+00  0.00000000e+00
 6.16100000e-02  2.00000000e-03  0.00000000e+00
 6.26200000e-02  0.00000000e+00  0.00000000e+00
 6.26200000e-02  2.00000000e-03  0.00000000e+00
 6.36300000e-02  0.00000000e+00  0.00000000e+00
 6.36300000e-02  2.00000000e-03  0.00000000e+00
 6.46400000e-02  0.00000000e+00  0.00000000e+00
 6.46400000e-02  2.00000000e-03  0.00000000e+00
 6.56500000e-02  0.00000000e+00  0.00000000e+00
 6.56500000e-02  2.00000000e-03  0.00000000e+00
 6.66600000e-02  0.00000000e+00  0.00000000e+00
 6.66600000e-02  2.00000000e-03  0.00000000e+00
 6.76700000e-02  0.00000000e+00  0.00000000e+00
 6.76700000e-02  2.00000000e-03  0.00000000e+00
 6.86800000e-02  0.00000000e+00  0.00000000e+00
 6.86800000e-02  2.00000000e-03  0.00000000e+00
 6.96900000e-02  0.00000000e+00  0.00000000e+00
 6.96900000e-02  2.00000000e-03  0.00000000e+00
 7.07000000e-02  0.00000000e+00  0.00000000e+00
 7.07000000e-02  2.00000000e-03  0.00000000e+00
 7.17100000e-02  0.00000000e+00  0.00000000e+00
 7.17100000e-02  2.00000000e-03  0.00000000e+00
 7.27200000e-02  0.00000000e+00  0.00000000e+00
 7.27200000e-02  2.00000000e-03  0.00000000e+00
 7.37300000e-02  0.00000000e+00  0.00000000e+00
 7.37300000e-02  2.00000000e-03  0.00000000e+00
 7.47400000e-02  0.00000000e+00  0.00000000e+00
 7.47400000e-02  2.00000000e-03  0.00000000e+00
 7.57500000e-02  0.00000000e+00  0.00000000e+00
 7.57500000e-02  2.00000000e-03  0.00000000e+00
 7.67600000e-02  0.00000000e+00  0.00000000e+00
 7.67600000e-02  2.00000000e-03  0.00000000e+00
 7.77700000e-02  0.00000000e+00  0.00000000e+00
 7.77700000e-02  2.00000000e-03  0.00000000e+00
 7.87800000e-02  0.00000000e+00  0.00000000e+00
 7.87800000e-02  2.00000000e-03  0.00000000e+00
 7.97900000e-02  0.00000000e+00  0.00000000e+00
 7.97900000e-02  2.00000000e-03  0.00000000e+00
 8.08000000e-02  0.00000000e+00  0.00000000e+00
 8.08000000e-02  2.00000000e-03  0.00000000e+00
 8.18100000e-02  0.00000000e+00  0.00000000e+00
 8.18100000e-02  2.00000000e-03  0.00000000e+00
 8.28200000e-02  0.00000000e+00  0.00000000e+00
 8.28200000e-02  2.00000000e-03  0.00000000e+00
 8.38300000e-02  0.00000000e+00  0.00000000e+00
 8.38300000e-02  2.00000000e-03  0.00000000e+00
 8.48400000e-02  0.00000000e+00  0.00000000e+00
 8.48400000e-02  2.00000000e-03  0.00000000e+00
 8.58500000e-02  0.00000000e+00  0.00000000e+00
 8.58500000e-02  2.00000000e-03  0.00000000e+00
 8.68600000e-02  0.00000000e+00  0.00000000e+00
 8.68600000e-02  2.00000000e-03  0.00000000e+00
 8.78700000e-02  0.00000000e+00  0.00000000e+00
 8.78700000e-02  2.00000000e-03  0.00000000e+00
 8.88800000e-02  0.00000000e+00  0.00000000e+00
 8.88800000e-02  2.00000000e-03  0.00000000e+00
 8.98900000e-02  0.00000000e+00  0.00000000e+00
 8.98900000e-02  2.00000000e-03  0.00000000e+00
 9.09000000e-02  0.00000000e+00  0.00000000e+00
 9.09000000e-02  2.00000000e-03  0.00000000e+00
 9.19100000e-02  0.00000000e+00  0.00000000e+00
 9.19100000e-02  2.00000000e-03  0.00000000e+00
 9.29200000e-02  0.00000000e+00  0.00000000e+00
 9.29200000e-02  2.00000000e-03  0.00000000e+00
 9.39300000e-02  0.00000000e+00  0.00000000e+00
 9.39300000e-02  2.00000000e-03  0.00000000e+00
 9.49400000e-02  0.00000000e+00  0.00000000e+00
 9.49400000e-02  2.00000000e-03  0.00000000e+00
 9.59500000e-02  0.00000000e+00  0.00000000e+00
 9.59500000e-02  2.00000000e-03  0.00000000e+00
 9.69600000e-02  0.00000000e+00  0.00000000e+00
 9.69600000e-02  2.00000000e-03  0.00000000e+00
 9.79700000e-02  0.00000000e+00  0.00000000e+00
 9.79700000e-02  2.00000000e-03  0.00000000e+00
 9.89800000e-02  0.00000000e+00  0.00000000e+00
 9.89800000e-02  2.00000000e-03  0.00000000e+00
 9.99900000e-02  0.00000000e+00  0.00000000e+00
 9.99900000e-02  2.00000000e-03  0.00000000e+00
 1.01000000e-01  0.00000000e+00  0.00000000e+00
 1.01000000e-01  2.00000000e-03  0.00000000e+00
 0.00000000e+00  2.00000000e-03  0.00000000e+00
 0.00000000e+00  0.00000000e+00  0.00000000e+00
CELLS 102 506
4 201 0 1 200
4 0 2 3 1
4 2 4 5 3
4 4 6 7 5
4 6 8 9 7
4 8 10 11 9
4 10 12 13 11
4 12 14 15 13
4 14 16 17 15
4 16 18 19 17
4 18 20 21 19
4 20 22 23 21
4 22 24 25 23
4 24 26 27 25
4 26 28 29 27
4 28 30 31 29
4 30 32 33 31
4 32 34 35 33
4 34 36 37 35
4 36 38 39 37
4 38 40 41 39
4 40 42 43 41
4 42 44 45 43
4 44 46 47 45
4 46 48 49 47
4 48 50 51 49
4 50 52 53 51
4 52 54 55 53
4 54 56 57 55
4 56 58 59 57
4 58 60 61 59
4 60 62 63 61
4 62 64 65 63
4 64 66 67 65
4 66 68 69 67
4 68 70 71 69
4 70 72 73 71
4 72 74 75 73
4 74 76 77 75
4 76 78 79 77
4 78 80 81 79
4 80 82 83 81
4 82 84 85 83
4 84 86 87 85
4 86 88 89 87
4 88 90 91 89
4 90 92 93 91
4 92 94 95 93
4 94 96 97 95
4 96 98 99 97
4 98 100 101 99
4 100 102 103 101
4 102 104 105 103
4 104 106 107 105
4 106 108 109 107
4 108 110 111 109
4 110 112 113 111
4 112 114 115 113
4 114 116 117 115
4 116 118 119 117
4 118 120 121 119
4 120 122 123 121
4 122 124 125 123
4 124 126 127 125
4 126 128 129 127
4 128 130 131 129
4 130 132 133 131
4 132 134 135 133
4 134 136 137 135
4 136 138 139 137
4 138 140 141 139
4 140 142 143 141
4 142 144 145 143
4 144 146 147 145
4 146 148 149 147
4 148 150 151 149
4 150 152 153 151
4 152 154 155 153
4 154 156 157 155
4 156 158 159 157
4 158 160 161 159
4 160 162 163 161
4 162 164 165 163
4 164 166 167 165
4 166 168 169 167
4 168 170 171 169
4 170 172 173 171
4 172 174 175 173
4 174 176 177 175
4 176 178 179 177
4 178 180 181 179
4 180 182 183 181
4 182 184 185 183
4 184 186 187 185
4 186 188 189 187
4 188 190 191 189
4 190 192 193 191
4 192 194 195 193
4 194 196 197 195
4 196 198 199 197
2 200 201
2 198 199
CELL_TYPES 102
9
9
9
9
9
9
9
9
9
9
9
9
9
9
9
9
9
9
9
9
9
9
9
9
9
9
9
9
9
9
9
9
9
9
9
9
9
9
9
9
9
9
9
9
9
9
9
9
9
9
9
9
9
9
9
9
9
9
9
9
9
9
9
9
9
9
9
9
9
9
9
9
9
9
9
9
9
9
9
9
9
9
9
9
9
9
9
9
9
9
9
9
9
9
9
9
9
9
9
9
3
3
CELL_DATA 102
SCALARS material_values float

LOOKUP_TABLE default

0
0
0
0
0
0
0
0
0
0
0
0
0
0
0
0
0
0
0
0
0
0
0
0
0
0
0
0
0
0
0
0
0
0
0
0
0
0
0
0
0
0
0
0
0
0
0
0
0
0
0
0
0
0
0
0
0
0
0
0
0
0
0
0
0
0
0
0
0
0
0
0
0
0
0
0
0
0
0
0
0
0
0
0
0
0
0
0
0
0
0
0
0
0
0
0
0
0
0
0
0
0
